<?xml version="1.0"?>
<VTKFile type="UnstructuredGrid"  version="0.1"  >
<UnstructuredGrid>
<Piece  NumberOfPoints="10201" NumberOfCells="20000">
<Points>
<DataArray  type="Float64"  NumberOfComponents="3"  format="ascii">0 0 0  0.01 0 0  0.02 0 0  0.03 0 0  0.04 0 0  0.05 0 0  0.06 0 0  0.07000000000000001 0 0  0.08 0 0  0.09 0 0  0.1 0 0  0.11 0 0  0.12 0 0  0.13 0 0  0.14 0 0  0.15 0 0  0.16 0 0  0.17 0 0  0.18 0 0  0.19 0 0  0.2 0 0  0.21 0 0  0.22 0 0  0.23 0 0  0.24 0 0  0.25 0 0  0.26 0 0  0.27 0 0  0.28 0 0  0.29 0 0  0.3 0 0  0.31 0 0  0.32 0 0  0.33 0 0  0.34 0 0  0.35 0 0  0.36 0 0  0.37 0 0  0.38 0 0  0.39 0 0  0.4 0 0  0.41 0 0  0.42 0 0  0.43 0 0  0.44 0 0  0.45 0 0  0.46 0 0  0.47 0 0  0.48 0 0  0.49 0 0  0.5 0 0  0.51 0 0  0.52 0 0  0.53 0 0  0.54 0 0  0.55 0 0  0.5600000000000001 0 0  0.57 0 0  0.58 0 0  0.59 0 0  0.6 0 0  0.61 0 0  0.62 0 0  0.63 0 0  0.64 0 0  0.65 0 0  0.66 0 0  0.67 0 0  0.68 0 0  0.6899999999999999 0 0  0.7 0 0  0.71 0 0  0.72 0 0  0.73 0 0  0.74 0 0  0.75 0 0  0.76 0 0  0.77 0 0  0.78 0 0  0.79 0 0  0.8 0 0  0.8100000000000001 0 0  0.82 0 0  0.83 0 0  0.84 0 0  0.85 0 0  0.86 0 0  0.87 0 0  0.88 0 0  0.89 0 0  0.9 0 0  0.91 0 0  0.92 0 0  0.93 0 0  0.9399999999999999 0 0  0.95 0 0  0.96 0 0  0.97 0 0  0.98 0 0  0.99 0 0  1 0 0  0 0.01 0  0.01 0.01 0  0.02 0.01 0  0.03 0.01 0  0.04 0.01 0  0.05 0.01 0  0.06 0.01 0  0.07000000000000001 0.01 0  0.08 0.01 0  0.09 0.01 0  0.1 0.01 0  0.11 0.01 0  0.12 0.01 0  0.13 0.01 0  0.14 0.01 0  0.15 0.01 0  0.16 0.01 0  0.17 0.01 0  0.18 0.01 0  0.19 0.01 0  0.2 0.01 0  0.21 0.01 0  0.22 0.01 0  0.23 0.01 0  0.24 0.01 0  0.25 0.01 0  0.26 0.01 0  0.27 0.01 0  0.28 0.01 0  0.29 0.01 0  0.3 0.01 0  0.31 0.01 0  0.32 0.01 0  0.33 0.01 0  0.34 0.01 0  0.35 0.01 0  0.36 0.01 0  0.37 0.01 0  0.38 0.01 0  0.39 0.01 0  0.4 0.01 0  0.41 0.01 0  0.42 0.01 0  0.43 0.01 0  0.44 0.01 0  0.45 0.01 0  0.46 0.01 0  0.47 0.01 0  0.48 0.01 0  0.49 0.01 0  0.5 0.01 0  0.51 0.01 0  0.52 0.01 0  0.53 0.01 0  0.54 0.01 0  0.55 0.01 0  0.5600000000000001 0.01 0  0.57 0.01 0  0.58 0.01 0  0.59 0.01 0  0.6 0.01 0  0.61 0.01 0  0.62 0.01 0  0.63 0.01 0  0.64 0.01 0  0.65 0.01 0  0.66 0.01 0  0.67 0.01 0  0.68 0.01 0  0.6899999999999999 0.01 0  0.7 0.01 0  0.71 0.01 0  0.72 0.01 0  0.73 0.01 0  0.74 0.01 0  0.75 0.01 0  0.76 0.01 0  0.77 0.01 0  0.78 0.01 0  0.79 0.01 0  0.8 0.01 0  0.8100000000000001 0.01 0  0.82 0.01 0  0.83 0.01 0  0.84 0.01 0  0.85 0.01 0  0.86 0.01 0  0.87 0.01 0  0.88 0.01 0  0.89 0.01 0  0.9 0.01 0  0.91 0.01 0  0.92 0.01 0  0.93 0.01 0  0.9399999999999999 0.01 0  0.95 0.01 0  0.96 0.01 0  0.97 0.01 0  0.98 0.01 0  0.99 0.01 0  1 0.01 0  0 0.02 0  0.01 0.02 0  0.02 0.02 0  0.03 0.02 0  0.04 0.02 0  0.05 0.02 0  0.06 0.02 0  0.07000000000000001 0.02 0  0.08 0.02 0  0.09 0.02 0  0.1 0.02 0  0.11 0.02 0  0.12 0.02 0  0.13 0.02 0  0.14 0.02 0  0.15 0.02 0  0.16 0.02 0  0.17 0.02 0  0.18 0.02 0  0.19 0.02 0  0.2 0.02 0  0.21 0.02 0  0.22 0.02 0  0.23 0.02 0  0.24 0.02 0  0.25 0.02 0  0.26 0.02 0  0.27 0.02 0  0.28 0.02 0  0.29 0.02 0  0.3 0.02 0  0.31 0.02 0  0.32 0.02 0  0.33 0.02 0  0.34 0.02 0  0.35 0.02 0  0.36 0.02 0  0.37 0.02 0  0.38 0.02 0  0.39 0.02 0  0.4 0.02 0  0.41 0.02 0  0.42 0.02 0  0.43 0.02 0  0.44 0.02 0  0.45 0.02 0  0.46 0.02 0  0.47 0.02 0  0.48 0.02 0  0.49 0.02 0  0.5 0.02 0  0.51 0.02 0  0.52 0.02 0  0.53 0.02 0  0.54 0.02 0  0.55 0.02 0  0.5600000000000001 0.02 0  0.57 0.02 0  0.58 0.02 0  0.59 0.02 0  0.6 0.02 0  0.61 0.02 0  0.62 0.02 0  0.63 0.02 0  0.64 0.02 0  0.65 0.02 0  0.66 0.02 0  0.67 0.02 0  0.68 0.02 0  0.6899999999999999 0.02 0  0.7 0.02 0  0.71 0.02 0  0.72 0.02 0  0.73 0.02 0  0.74 0.02 0  0.75 0.02 0  0.76 0.02 0  0.77 0.02 0  0.78 0.02 0  0.79 0.02 0  0.8 0.02 0  0.8100000000000001 0.02 0  0.82 0.02 0  0.83 0.02 0  0.84 0.02 0  0.85 0.02 0  0.86 0.02 0  0.87 0.02 0  0.88 0.02 0  0.89 0.02 0  0.9 0.02 0  0.91 0.02 0  0.92 0.02 0  0.93 0.02 0  0.9399999999999999 0.02 0  0.95 0.02 0  0.96 0.02 0  0.97 0.02 0  0.98 0.02 0  0.99 0.02 0  1 0.02 0  0 0.03 0  0.01 0.03 0  0.02 0.03 0  0.03 0.03 0  0.04 0.03 0  0.05 0.03 0  0.06 0.03 0  0.07000000000000001 0.03 0  0.08 0.03 0  0.09 0.03 0  0.1 0.03 0  0.11 0.03 0  0.12 0.03 0  0.13 0.03 0  0.14 0.03 0  0.15 0.03 0  0.16 0.03 0  0.17 0.03 0  0.18 0.03 0  0.19 0.03 0  0.2 0.03 0  0.21 0.03 0  0.22 0.03 0  0.23 0.03 0  0.24 0.03 0  0.25 0.03 0  0.26 0.03 0  0.27 0.03 0  0.28 0.03 0  0.29 0.03 0  0.3 0.03 0  0.31 0.03 0  0.32 0.03 0  0.33 0.03 0  0.34 0.03 0  0.35 0.03 0  0.36 0.03 0  0.37 0.03 0  0.38 0.03 0  0.39 0.03 0  0.4 0.03 0  0.41 0.03 0  0.42 0.03 0  0.43 0.03 0  0.44 0.03 0  0.45 0.03 0  0.46 0.03 0  0.47 0.03 0  0.48 0.03 0  0.49 0.03 0  0.5 0.03 0  0.51 0.03 0  0.52 0.03 0  0.53 0.03 0  0.54 0.03 0  0.55 0.03 0  0.5600000000000001 0.03 0  0.57 0.03 0  0.58 0.03 0  0.59 0.03 0  0.6 0.03 0  0.61 0.03 0  0.62 0.03 0  0.63 0.03 0  0.64 0.03 0  0.65 0.03 0  0.66 0.03 0  0.67 0.03 0  0.68 0.03 0  0.6899999999999999 0.03 0  0.7 0.03 0  0.71 0.03 0  0.72 0.03 0  0.73 0.03 0  0.74 0.03 0  0.75 0.03 0  0.76 0.03 0  0.77 0.03 0  0.78 0.03 0  0.79 0.03 0  0.8 0.03 0  0.8100000000000001 0.03 0  0.82 0.03 0  0.83 0.03 0  0.84 0.03 0  0.85 0.03 0  0.86 0.03 0  0.87 0.03 0  0.88 0.03 0  0.89 0.03 0  0.9 0.03 0  0.91 0.03 0  0.92 0.03 0  0.93 0.03 0  0.9399999999999999 0.03 0  0.95 0.03 0  0.96 0.03 0  0.97 0.03 0  0.98 0.03 0  0.99 0.03 0  1 0.03 0  0 0.04 0  0.01 0.04 0  0.02 0.04 0  0.03 0.04 0  0.04 0.04 0  0.05 0.04 0  0.06 0.04 0  0.07000000000000001 0.04 0  0.08 0.04 0  0.09 0.04 0  0.1 0.04 0  0.11 0.04 0  0.12 0.04 0  0.13 0.04 0  0.14 0.04 0  0.15 0.04 0  0.16 0.04 0  0.17 0.04 0  0.18 0.04 0  0.19 0.04 0  0.2 0.04 0  0.21 0.04 0  0.22 0.04 0  0.23 0.04 0  0.24 0.04 0  0.25 0.04 0  0.26 0.04 0  0.27 0.04 0  0.28 0.04 0  0.29 0.04 0  0.3 0.04 0  0.31 0.04 0  0.32 0.04 0  0.33 0.04 0  0.34 0.04 0  0.35 0.04 0  0.36 0.04 0  0.37 0.04 0  0.38 0.04 0  0.39 0.04 0  0.4 0.04 0  0.41 0.04 0  0.42 0.04 0  0.43 0.04 0  0.44 0.04 0  0.45 0.04 0  0.46 0.04 0  0.47 0.04 0  0.48 0.04 0  0.49 0.04 0  0.5 0.04 0  0.51 0.04 0  0.52 0.04 0  0.53 0.04 0  0.54 0.04 0  0.55 0.04 0  0.5600000000000001 0.04 0  0.57 0.04 0  0.58 0.04 0  0.59 0.04 0  0.6 0.04 0  0.61 0.04 0  0.62 0.04 0  0.63 0.04 0  0.64 0.04 0  0.65 0.04 0  0.66 0.04 0  0.67 0.04 0  0.68 0.04 0  0.6899999999999999 0.04 0  0.7 0.04 0  0.71 0.04 0  0.72 0.04 0  0.73 0.04 0  0.74 0.04 0  0.75 0.04 0  0.76 0.04 0  0.77 0.04 0  0.78 0.04 0  0.79 0.04 0  0.8 0.04 0  0.8100000000000001 0.04 0  0.82 0.04 0  0.83 0.04 0  0.84 0.04 0  0.85 0.04 0  0.86 0.04 0  0.87 0.04 0  0.88 0.04 0  0.89 0.04 0  0.9 0.04 0  0.91 0.04 0  0.92 0.04 0  0.93 0.04 0  0.9399999999999999 0.04 0  0.95 0.04 0  0.96 0.04 0  0.97 0.04 0  0.98 0.04 0  0.99 0.04 0  1 0.04 0  0 0.05 0  0.01 0.05 0  0.02 0.05 0  0.03 0.05 0  0.04 0.05 0  0.05 0.05 0  0.06 0.05 0  0.07000000000000001 0.05 0  0.08 0.05 0  0.09 0.05 0  0.1 0.05 0  0.11 0.05 0  0.12 0.05 0  0.13 0.05 0  0.14 0.05 0  0.15 0.05 0  0.16 0.05 0  0.17 0.05 0  0.18 0.05 0  0.19 0.05 0  0.2 0.05 0  0.21 0.05 0  0.22 0.05 0  0.23 0.05 0  0.24 0.05 0  0.25 0.05 0  0.26 0.05 0  0.27 0.05 0  0.28 0.05 0  0.29 0.05 0  0.3 0.05 0  0.31 0.05 0  0.32 0.05 0  0.33 0.05 0  0.34 0.05 0  0.35 0.05 0  0.36 0.05 0  0.37 0.05 0  0.38 0.05 0  0.39 0.05 0  0.4 0.05 0  0.41 0.05 0  0.42 0.05 0  0.43 0.05 0  0.44 0.05 0  0.45 0.05 0  0.46 0.05 0  0.47 0.05 0  0.48 0.05 0  0.49 0.05 0  0.5 0.05 0  0.51 0.05 0  0.52 0.05 0  0.53 0.05 0  0.54 0.05 0  0.55 0.05 0  0.5600000000000001 0.05 0  0.57 0.05 0  0.58 0.05 0  0.59 0.05 0  0.6 0.05 0  0.61 0.05 0  0.62 0.05 0  0.63 0.05 0  0.64 0.05 0  0.65 0.05 0  0.66 0.05 0  0.67 0.05 0  0.68 0.05 0  0.6899999999999999 0.05 0  0.7 0.05 0  0.71 0.05 0  0.72 0.05 0  0.73 0.05 0  0.74 0.05 0  0.75 0.05 0  0.76 0.05 0  0.77 0.05 0  0.78 0.05 0  0.79 0.05 0  0.8 0.05 0  0.8100000000000001 0.05 0  0.82 0.05 0  0.83 0.05 0  0.84 0.05 0  0.85 0.05 0  0.86 0.05 0  0.87 0.05 0  0.88 0.05 0  0.89 0.05 0  0.9 0.05 0  0.91 0.05 0  0.92 0.05 0  0.93 0.05 0  0.9399999999999999 0.05 0  0.95 0.05 0  0.96 0.05 0  0.97 0.05 0  0.98 0.05 0  0.99 0.05 0  1 0.05 0  0 0.06 0  0.01 0.06 0  0.02 0.06 0  0.03 0.06 0  0.04 0.06 0  0.05 0.06 0  0.06 0.06 0  0.07000000000000001 0.06 0  0.08 0.06 0  0.09 0.06 0  0.1 0.06 0  0.11 0.06 0  0.12 0.06 0  0.13 0.06 0  0.14 0.06 0  0.15 0.06 0  0.16 0.06 0  0.17 0.06 0  0.18 0.06 0  0.19 0.06 0  0.2 0.06 0  0.21 0.06 0  0.22 0.06 0  0.23 0.06 0  0.24 0.06 0  0.25 0.06 0  0.26 0.06 0  0.27 0.06 0  0.28 0.06 0  0.29 0.06 0  0.3 0.06 0  0.31 0.06 0  0.32 0.06 0  0.33 0.06 0  0.34 0.06 0  0.35 0.06 0  0.36 0.06 0  0.37 0.06 0  0.38 0.06 0  0.39 0.06 0  0.4 0.06 0  0.41 0.06 0  0.42 0.06 0  0.43 0.06 0  0.44 0.06 0  0.45 0.06 0  0.46 0.06 0  0.47 0.06 0  0.48 0.06 0  0.49 0.06 0  0.5 0.06 0  0.51 0.06 0  0.52 0.06 0  0.53 0.06 0  0.54 0.06 0  0.55 0.06 0  0.5600000000000001 0.06 0  0.57 0.06 0  0.58 0.06 0  0.59 0.06 0  0.6 0.06 0  0.61 0.06 0  0.62 0.06 0  0.63 0.06 0  0.64 0.06 0  0.65 0.06 0  0.66 0.06 0  0.67 0.06 0  0.68 0.06 0  0.6899999999999999 0.06 0  0.7 0.06 0  0.71 0.06 0  0.72 0.06 0  0.73 0.06 0  0.74 0.06 0  0.75 0.06 0  0.76 0.06 0  0.77 0.06 0  0.78 0.06 0  0.79 0.06 0  0.8 0.06 0  0.8100000000000001 0.06 0  0.82 0.06 0  0.83 0.06 0  0.84 0.06 0  0.85 0.06 0  0.86 0.06 0  0.87 0.06 0  0.88 0.06 0  0.89 0.06 0  0.9 0.06 0  0.91 0.06 0  0.92 0.06 0  0.93 0.06 0  0.9399999999999999 0.06 0  0.95 0.06 0  0.96 0.06 0  0.97 0.06 0  0.98 0.06 0  0.99 0.06 0  1 0.06 0  0 0.07000000000000001 0  0.01 0.07000000000000001 0  0.02 0.07000000000000001 0  0.03 0.07000000000000001 0  0.04 0.07000000000000001 0  0.05 0.07000000000000001 0  0.06 0.07000000000000001 0  0.07000000000000001 0.07000000000000001 0  0.08 0.07000000000000001 0  0.09 0.07000000000000001 0  0.1 0.07000000000000001 0  0.11 0.07000000000000001 0  0.12 0.07000000000000001 0  0.13 0.07000000000000001 0  0.14 0.07000000000000001 0  0.15 0.07000000000000001 0  0.16 0.07000000000000001 0  0.17 0.0700
[...]
<PointData  Scalars="f_17"> 
<DataArray  type="Float64"  Name="f_17"  format="ascii">0.0000000000000000e+00  5.0000000000000000e+01  5.0000000000000000e+01  5.0000000000000000e+01  5.0000000000000000e+01  5.0000000000000000e+01  5.0000000000000000e+01  5.0000000000000000e+01  5.0000000000000000e+01  5.0000000000000000e+01  5.0000000000000000e+01  5.0000000000000000e+01  5.0000000000000000e+01  5.0000000000000000e+01  5.0000000000000000e+01  5.0000000000000000e+01  5.0000000000000000e+01  5.0000000000000000e+01  5.0000000000000000e+01  5.0000000000000000e+01  5.0000000000000000e+01  5.0000000000000000e+01  5.0000000000000000e+01  5.0000000000000000e+01  5.0000000000000000e+01  5.0000000000000000e+01  5.0000000000000000e+01  5.0000000000000000e+01  5.0000000000000000e+01  5.0000000000000000e+01  5.0000000000000000e+01  5.0000000000000000e+01  5.0000000000000000e+01  5.0000000000000000e+01  5.0000000000000000e+01  5.0000000000000000e+01  5.0000000000000000e+01  5.0000000000000000e+01  5.0000000000000000e+01  5.0000000000000000e+01  5.0000000000000000e+01  5.0000000000000000e+01  5.0000000000000000e+01  5.0000000000000000e+01  5.0000000000000000e+01  5.0000000000000000e+01  5.0000000000000000e+01  5.0000000000000000e+01  5.0000000000000000e+01  5.0000000000000000e+01  5.0000000000000000e+01  5.0000000000000000e+01  5.0000000000000000e+01  5.0000000000000000e+01  5.0000000000000000e+01  5.0000000000000000e+01  5.0000000000000000e+01  5.0000000000000000e+01  5.0000000000000000e+01  5.0000000000000000e+01  5.0000000000000000e+01  5.0000000000000000e+01  5.0000000000000000e+01  5.0000000000000000e+01  5.0000000000000000e+01  5.0000000000000000e+01  5.0000000000000000e+01  5.0000000000000000e+01  5.0000000000000000e+01  5.0000000000000000e+01  5.0000000000000000e+01  5.0000000000000000e+01  5.0000000000000000e+01  5.0000000000000000e+01  5.0000000000000000e+01  5.0000000000000000e+01  5.0000000000000000e+01  5.0000000000000000e+01  5.0000000000000000e+01  5.0000000000000000e+01  5.0000000000000000e+01  5.0000000000000000e+01  5.0000000000000000e+01  5.0000000000000000e+01  5.0000000000000000e+01  5.0000000000000000e+01  5.0000000000000000e+01  5.0000000000000000e+01  5.0000000000000000e+01  5.0000000000000000e+01  5.0000000000000000e+01  5.0000000000000000e+01  5.0000000000000000e+01  5.0000000000000000e+01  5.0000000000000000e+01  5.0000000000000000e+01  5.0000000000000000e+01  5.0000000000000000e+01  5.0000000000000000e+01  5.0000000000000000e+01  0.0000000000000000e+00  0.0000000000000000e+00  2.4936930588597395e+01  3.5127624750916617e+01  3.9571655599806626e+01  4.1951582898883572e+01  4.3404075613603972e+01  4.4369233814054688e+01  4.5048855635542282e+01  4.5547596998838678e+01  4.5924918948712282e+01  4.6217040201346585e+01  4.6447261388888293e+01  4.6631246057230527e+01  4.6779910267087324e+01  4.6901093349377355e+01  4.7000569364263775e+01  4.7082683719460071e+01  4.7150767464491722e+01  4.7207414836636993e+01  4.7254673994125234e+01  4.7294181088010852e+01  4.7327256433328174e+01  4.7354974767158552e+01  4.7378217437136030e+01  4.7397711762620183e+01  4.7414061139931469e+01  4.7427768367360400e+01  4.7439253933502066e+01  4.7448870514790066e+01  4.7456914584497348e+01  4.7463635794833706e+01  4.7469244623022625e+01  4.7473918649615499e+01  4.7477807748247173e+01  4.7481038400680099e+01  4.7483717302546083e+01  4.7485934388953126e+01  4.7487765381756184e+01  4.7489273939435797e+01  4.7490513474486939e+01  4.7491528690761598e+01  4.7492356883438546e+01  4.7493029036543291e+01  4.7493570746724423e+01  4.7494002996942704e+01  4.7494342799565885e+01  4.7494603724883454e+01  4.7494796328092470e+01  4.7494928485246575e+01  4.7495005646394631e+01  4.7495031012100917e+01  4.7495005637659752e+01  4.7494928467552697e+01  4.7494796300989528e+01  4.7494603687691175e+01  4.7494342751367753e+01  4.7494002936578248e+01  4.7493570672780400e+01  4.7493028947343426e+01  4.7492356777032938e+01  4.7491528564915896e+01  4.7490513326672229e+01  4.7489273766819515e+01  4.7487765181194476e+01  4.7485934156986566e+01  4.7483717035398172e+01  4.7481038094260121e+01  4.7477807398158326e+01  4.7473918251168364e+01  4.7469244171255816e+01  4.7463635284541276e+01  4.7456914010264050e+01  4.7448869871035093e+01  4.7439253214530893e+01  4.7427767567425164e+01  4.7414060253299489e+01  4.7397710783649828e+01  4.7378216360359545e+01  4.7354973587370218e+01  4.7327255145676205e+01  4.7294179688091418e+01  4.7254672478076287e+01  4.7207413201229230e+01  4.7150765707213552e+01  4.7082681838594056e+01  4.7000567358950718e+01  4.6901091219664423e+01  4.6779908013956316e+01  4.6631243682602239e+01  4.6447258895597116e+01  4.6217037593080406e+01  4.5924916229906898e+01  4.5547594174513847e+01  4.5048852711050763e+01  4.4369230794682906e+01  4.3404072503867660e+01  4.1951579701041069e+01  3.9571652309833667e+01  3.5127621343998314e+01  2.4936926949899281e+01  0.0000000000000000e+00  0.0000000000000000e+00  1.4620605225518220e+01  2.4748738649138385e+01  3.0908703177493127e+01  3.4741872838417912e+01  3.7264673921554738e+01  3.9012755430750254e+01  4.0275216889630649e+01  4.1216939516054481e+01  4.1937371040528383e+01  4.2499553053725776e+01  4.2945191490547963e+01  4.3302898112930357e+01  4.3592918703595927e+01  4.3829963832549517e+01  4.4024968460325745e+01  4.4186222421674067e+01  4.4320118200546013e+01  4.4431658519564067e+01  4.4524808947913122e+01  4.4602747994051150e+01  4.4668047859742664e+01  4.4722807341354020e+01  4.4768751096632172e+01  4.4807304871506112e+01  4.4839653277481567e+01  4.4866784720853666e+01  4.4889526744308661e+01  4.4908574123443707e+01  4.4924511422784988e+01  4.4937831266571038e+01  4.4948949259145252e+01  4.4958216258665104e+01  4.4965928539298503e+01  4.4972336252960773e+01  4.4977650509352387e+01  4.4982049323810578e+01  4.4985682630050825e+01  4.4988676514821258e+01  4.4991136800613994e+01  4.4993152078543488e+01  4.4994796274613449e+01  4.4996130817584735e+01  4.4997206464590235e+01  4.4998064830824347e+01  4.4998739661525448e+01  4.4999257877678424e+01  4.4999640421075220e+01  4.4999902919355641e+01  4.5000056187211108e+01  4.5000106575935099e+01  4.5000056179812240e+01  4.4999902904361008e+01  4.4999640398089099e+01  4.4999257846102395e+01  4.4998739620552691e+01  4.4998064779432227e+01  4.4997206401531919e+01  4.4996130741379616e+01  4.4994796183536664e+01  4.4993151970615692e+01  4.4991136673591491e+01  4.4988676366186859e+01  4.4985682457006575e+01  4.4982049123272638e+01  4.4977650277948968e+01  4.4972335987034327e+01  4.4965928234911935e+01  4.4958215911613429e+01  4.4948948864973651e+01  4.4937830820599196e+01  4.4924510920138573e+01  4.4908573559093057e+01  4.4889526113115814e+01  4.4866784017625989e+01  4.4839652497033036e+01  4.4807304008724614e+01  4.4768750146552946e+01  4.4722806299236666e+01  4.4668046721150510e+01  4.4602746754930948e+01  4.4524807604672944e+01  4.4431657069145565e+01  4.4320116640488578e+01  4.4186220750167031e+01  4.4024966676244787e+01  4.3829961935472554e+01  4.3592916693793548e+01  4.3302895991325506e+01  4.2945189258637008e+01  4.2499550713452223e+01  4.1937368594095076e+01  4.1216936965653311e+01  4.0275214237051365e+01  3.9012752676795863e+01  3.7264671065113909e+01  3.4741869874889595e+01  3.0908700096079652e+01  2.4748735429989942e+01  1.4620601859220034e+01  0.0000000000000000e+00  0.0000000000000000e+00  1.0051959935270144e+01  1.8340050531142623e+01  2.4438462508067566e+01  2.8770079575472405e+01  3.1867244864019980e+01  3.4128776695782818e+01  3.5819045900913501e+01  3.7109651175175017e+01  3.8113360371103049e+01  3.8906030824380416e+01  3.9540030876792422e+01  4.0052437406497219e+01  4.0470121363274444e+01  4.0812972848338333e+01  4.1095995311542957e+01  4.1330697491629181e+01  4.1526039312844539e+01  4.1689088114413636e+01  4.1825482747083917e+01  4.1939767679045723e+01  4.2035637516883938e+01  4.2116118720751061e+01  4.2183706581300306e+01  4.2240469852090968e+01  4.2288131670993522e+01  4.2328132871351606e+01  4.2361682051653069e+01  4.2389795571291188e+01  4.2413329796034951e+01  4.2433007316609903e+01  4.2449438432087938e+01  4.2463138876000954e+01  4.2474544532754578e+01  4.2484023721255177e+01  4.2491887495075652e+01  4.2498398312277814e+01  4.2503777354837190e+01  4.2508210721487217e+01  4.2511854674361011e+01  4.2514840085880131e+01  4.2517276205575463e+01  4.2519253845191251e+01  4.2520848063215674e+01  4.2522120415930125e+01  4.2523120830433896e+01  4.2523889145319430e+01  4.2524456356319476e+01  4.2524845596975155e+01  4.2525072877938605e+01  4.2525147602695313e+01  4.2525072872115004e+01  4.2524845585159596e+01  4.2524456338173287e+01  4.2523889120329798e+01  4.2523120797908007e+01  4.2522120374988312e+01  4.2520848012782167e+01  4.2519253783984901e+01  4.2517276132099020e+01  4.2514839998409542e+01  4.2511854570934879e+01  4.2508210599896785e+01  4.2503777212618161e+01  4.2498398146703664e+01  4.2491887303154094e+01  4.2484023499727904e+01  4.2474544278101213e+01  4.2463138584447947e+01  4.2449438099623080e+01  4.2433006939003050e+01  4.2413329368865355e+01  4.2389795089981639e+01  4.2361681511511506e+01  4.2328132267619310e+01  4.2288130998900137e+01  4.2240469106915342e+01  4.2183705758435813e+01  4.2116117815774636e+01  4.2035636525626231e+01  4.1939766597660345e+01  4.1825481572113461e+01  4.1689086842848475e+01  4.1526037942171541e+01  4.1330696019865847e+01  4.1095993737252762e+01  4.0812971170621829e+01  4.0470119581730735e+01  4.0052435521148880e+01  3.9540028887965548e+01  3.8906028732529272e+01  3.8113358176565541e+01  3.7109648877837202e+01  3.5819043499753036e+01  3.4128774188244975e+01  3.1867242245170182e+01  2.8770076836918584e+01  2.4438459637002865e+01  1.8340047511251917e+01  1.0051956751192629e+01  0.0000000000000000e+00  0.0000000000000000e+00  7.5489274087224674e+00  1.4261169422195390e+01  1.9739519360117971e+01  2.4011065104170225e+01  2.7289949217560331e+01  2.9809805109732629e+01  3.1763312410548714e+01  3.3294908661713492e+01  3.4509482908068613e+01  3.5482835214776649e+01  3.6270135811166469e+01  3.6912037430279149e+01  3.7438924676070080e+01  3.7873839500985120e+01  3.8234501719360559e+01  3.8534717609518758e+01  3.8785373990893596e+01  3.8995149231285716e+01  3.9171028815610484e+01  3.9318684306480286e+01  3.9442755591434278e+01  3.9547063783232645e+01  3.9634773772304904e+01  3.9708519781051287e+01  3.9770503411281894e+01  3.9822571010119390e+01  3.9866275316528089e+01  3.9902925034082799e+01  3.9933625035408475e+01  3.9959309225538277e+01  3.9980767597546915e+01  3.9998668650871103e+01  4.0013578073695470e+01  4.0025974389710889e+01  4.0036262118050949e+01  4.0044782880166942e+01  4.0051824799335485e+01  4.0057630470536651e+01  4.0062403725558141e+01  4.0066315376658657e+01  4.0069508089206991e+01  4.0072100507346313e+01  4.0074190735369569e+01  4.0075859259961796e+01  4.0077171383887141e+01  4.0078179229388148e+01  4.0078923359003149e+01  4.0079434052282600e+01  4.0079732268685163e+01  4.0079830319487570e+01  4.0079732264652463e+01  4.0079434044078376e+01  4.0078923346347707e+01  4.0078179211856956e+01  4.0077171360904643e+01  4.0075859230794109e+01  4.0074190699114901e+01  4.0072100462924659e+01  4.0069508035348569e+01  4.0066315311892211e+01  4.0062403648198497e+01  4.0057630378673586e+01  4.0051824690822841e+01  4.0044782752614125e+01  4.0036261968816262e+01  4.0025974215898465e+01  4.0013577872155658e+01  3.9998668418205796e+01  3.9980767330120123e+01  3.9959308919492599e+01  3.9933624686687942e+01  3.9902924638462707e+01  3.9866274869651591e+01  3.9822570507541059e+01  3.9770502848517943e+01  3.9708519153635088e+01  3.9634773075847491e+01  3.9547063013486131e+01  3.9442754744356172e+01  3.9318683378296747e+01  3.9171027802874946e+01  3.8995148130929891e+01  3.8785372800266586e+01  3.8534716326410084e+01  3.8234500342002086e+01  3.7873838028026114e+01  3.7438923106519411e+01  3.6912035763407751e+01  3.6270134046360823e+01  3.5482833351334151e+01  3.4509480944921911e+01  3.3294906597068611e+01  3.1763310241418054e+01  2.9809802831347270e+01  2.7289946822663740e+01  2.4011062582268330e+01  1.9739516696923431e+01  1.4261166599541781e+01  7.5489244039764145e+00  0.0000000000000000e+00  0.0000000000000000e+00  5.9753126362326494e+00  1.1496615009629362e+01  1.6280944688141403e+01  2.0252563250679255e+01  2.3473294378283409e+01  2.6060427661337680e+01  2.8136329955048893e+01  2.9807612313394142e+01  3.1160369264746400e+01  3.2261881288397795e+01  3.3164101212432655e+01  3.3907097865528989e+01  3.4521910778238471e+01  3.5032759110588131e+01  3.5458701201477581e+01  3.5814867495565800e+01  3.6113374956875703e+01  3.6364007623080028e+01  3.6574726361410853e+01  3.6752053767234571e+01  3.6901367382586976e+01  3.7027125158982436e+01  3.7133040461943132e+01  3.7222219186191687e+01  3.7297268172929471e+01  3.7360381698839831e+01  3.7413411060507862e+01  3.7457921011232166e+01  3.7495235881914262e+01  3.7526477537085690e+01  3.7552596812952224e+01  3.7574399708253047e+01  3.7592569316268253e+01  3.7607684272709562e+01  3.7620234331600813e+01  3.7630633556583263e+01  3.7639231518825959e+01  3.7646322817853701e+01  3.7652155182914633e+01  3.7656936366104858e+01  3.7660840001436284e+01  3.7664010574178981e+01  3.7666567620468065e+01  3.7668609257070571e+01  3.7670215124394261e+01  3.7671448811540721e+01  3.7672359819883496e+01  3.7672985110835839e+01  3.7673350273805056e+01  3.7673470341522396e+01  3.7673350271752462e+01  3.7672985106622072e+01  3.7672359813289198e+01  3.7671448802231296e+01  3.7670215111913400e+01  3.7668609240831799e+01  3.7666567599744390e+01  3.7664010548091326e+01  3.7660839968940294e+01  3.7656936325977085e+01  3.7652155133738262e+01  3.7646322758004480e+01  3.7639231446458716e+01  3.7630633469619724e+01  3.7620234227719607e+01  3.7607684149339008e+01  3.7592569170582699e+01  3.7574399537173761e+01  3.7552596613153334e+01  3.7526477305006146e+01  3.7495235613776210e+01  3.7457920703066293e+01  3.7413410708185793e+01  3.7360381298113857e+01  3.7297267719479130e+01  3.7222218675676238e+01  3.7133039890059138e+01  3.7027124521524904e+01  3.6901366675511426e+01  3.6752052986718198e+01  3.6574725503909001e+01  3.6364006685374733e+01  3.6113373936111735e+01  3.5814866389269589e+01  3.5458700007553830e+01  3.5032757827288023e+01  3.4521909404093329e+01  3.3907096399242093e+01  3.3164099652721440e+01  3.2261879633777731e+01  3.1160367513247255e+01  2.9807610462198443e+01  2.8136328000044866e+01  2.6060425596585134e+01  2.3473292195408479e+01  2.0252560938244056e+01  1.6280942231044570e+01  1.1496612388454297e+01  5.9753098260330226e+00  0.0000000000000000e+00  0.0000000000000000e+00  4.8914653733774145e+00  9.5116360826453050e+00  1.3665262229616165e+01  1.7262721435324817e+01  2.0302203136694832e+01  2.2833493382044132e+01  2.4926879310282700e+01  2.6654321841672218e+01  2.8080701396162102e+01  2.9261025079873498e+01  3.0240508616482700e+01  3.1055776715018666e+01  3.1736330607969805e+01  3.2305926026969459e+01  3.2783743500627779e+01  3.3185336516227110e+01  3.3523382072886186e+01  3.3808268475564745e+01  3.4048554015410183e+01  3.4251325143997995e+01  3.4422477097545219e+01  3.4566934859236916e+01  3.4688828190079811e+01  3.4791631192629737e+01  3.4878274363941095e+01  3.4951235190808617e+01  3.5012611903959836e+01  3.5064183925648408e+01  3.5107461729195130e+01  3.5143728212540417e+01  3.5174073220568317e+01  3.5199422495366072e+01  3.5220562061809567e+01  3.5238158847169295e+01  3.5252778172353146e+01  3.5264898627394963e+01  3.5274924746205066e+01  3.5283197818913884e+01  3.5290005119447819e+01  3.5295587777563370e+01  3.5300147485595929e+01  3.5303852198504700e+01  3.5306840959762461e+01  3.5309227963976213e+01  3.5311105948862362e+01  3.5312548993573202e+01  3.5313614786790474e+01  3.5314346416002273e+01  3.5314773718586366e+01  3.5314914225440553e+01  3.5314773718674452e+01  3.5314346416100463e+01  3.5313614786740452e+01  3.5312548993131273e+01  3.5311105947692184e+01  3.5309227961639124e+01  3.5306840955705816e+01  3.5303852192048460e+01  3.5300147475917370e+01  3.5295587763680714e+01  3.5290005100202933e+01  3.5283197792955029e+01  3.5274924711969611e+01  3.5264898583093014e+01  3.5252778115953284e+01  3.5238158776386491e+01  3.5220561974096725e+01  3.5199422387909905e+01  3.5174073090290129e+01  3.5143728056103413e+01  3.5107461543018061e+01  3.5064183705926766e+01  3.5012611646694680e+01  3.4951234891843278e+01  3.4878274019005488e+01  3.4791630797391591e+01  3.4688827740201873e+01  3.4566934350438444e+01  3.4422476525665516e+01  3.4251324505059522e+01  3.4048553305677800e+01  3.3808267691597052e+01  3.3523381211575007e+01  3.3185335574819163e+01  3.2783742476724086e+01  3.2305924918495627e+01  3.1736329413111186e+01  3.1055775432113592e+01  3.0240507243866414e+01  2.9261023615666247e+01  2.8080699837994207e+01  2.6654320186340676e+01  2.4926877553337267e+01  2.2833491517305912e+01  2.0302201155720127e+01  1.7262719326832343e+01  1.3665259978878378e+01  9.5116336707820874e+00  4.8914627764067529e+00  0.0000000000000000e+00  0.0000000000000000e+00  4.0960080939408270e+00  8.0179725962139283e+00  1.1629356048081446e+01  1.4850525208402821e+01  1.7656377366547087e+01  2.0061179147957610e+01  2.2101370321609718e+01  2.3822253956296382e+01  2.5269767275710649e+01  2.6486276958363522e+01  2.7508925059612558e+01  2.8369367028343444e+01  2.9094167689917519e+01  2.9705445388267769e+01  3.0221557620704786e+01  3.0657735585488989e+01  3.1026634295028177e+01  3.1338793374780916e+01  3.1603015935483469e+01  3.1826677104589550e+01  3.2015974241438684e+01  3.2176129730025423e+01  3.2311555607414846e+01  3.2425987629627841e+01  3.2522594896505545e+01  3.2604069911130388e+01  3.2672702934685503e+01  3.2730443686864014e+01  3.2778952801305117e+01  3.2819644942516334e+01  3.2853725097026739e+01  3.2882219243664629e+01  3.2906000367021420e+01  3.2925810589438228e+01  3.2942280048573281e+01  3.2955943030691309e+01  3.2967251777231375e+01  3.2976588308498997e+01  3.2984274549287839e+01  3.2990580993596076e+01  3.2995734106843173e+01  3.2999922632156647e+01  3.3003302940865957e+01  3.3006003545130497e+01  3.3008128871721617e+01  3.3009762379650915e+01  3.3010969090022186e+01  3.3011797583730349e+01  3.3012281511078292e+01  3.3012440646731065e+01  3.3012281513437031e+01  3.3011797588400668e+01  3.3010969096907026e+01  3.3009762388597650e+01  3.3008128882513631e+01  3.3006003557476305e+01  3.3003302954385624e+01  3.2999922646366151e+01  3.2995734121136543e+01  3.2990581007225870e+01  3.2984274561344478e+01  3.2976588317889203e+01  3.2967251782656753e+01  3.2955943030627147e+01  3.2942280041249070e+01  3.2925810572820389e+01  3.2906000338799139e+01  3.2882219201240375e+01  3.2853725037511694e+01  3.2819644862732567e+01  3.2778952697794708e+01  3.2730443555906234e+01  3.2672702772322637e+01  3.2604069713202335e+01  3.2522594658693286e+01  3.2425987347504964e+01  3.2311555276506688e+01  3.2176129345873498e+01  3.2015973799669091e+01  3.1826676600981830e+01  3.1603015366037042e+01  3.1338792735774582e+01  3.1026633583068421e+01  3.0657734797541440e+01  3.0221556754103549e+01  2.9705444440696173e+01  2.9094166659354009e+01  2.8369365912966366e+01  2.7508923857657496e+01  2.6486275667927359e+01  2.5269765894497887e+01  2.3822252481304908e+01  2.2101368748756460e+01  2.0061177471648730e+01  1.7656375579201775e+01  1.4850523299940699e+01  1.1629354005375452e+01  8.0179704025001275e+00  4.0960057281738349e+00  0.0000000000000000e+00  0.0000000000000000e+00  3.4846717886350294e+00  6.8515155574344062e+00  1.0002781815636345e+01  1.2873068832519303e+01  1.5431109071304599e+01  1.7673790765910841e+01  1.9617121425981640e+01  2.1287737950675705e+01  2.2716566897544002e+01  2.3934786422769250e+01  2.4971601228537352e+01  2.5853231084131846e+01  2.6602623794578342e+01  2.7239557431918435e+01  2.7780925048437776e+01  2.8241084058690067e+01  2.8632208209630061e+01  2.8964612681632925e+01  2.9247040912507508e+01  2.9486911137381686e+01  2.9690525133506746e