<?xml version="1.0"?>
<VTKFile type="UnstructuredGrid"  version="0.1"  >
<UnstructuredGrid>
<Piece  NumberOfPoints="10201" NumberOfCells="20000">
<Points>
<DataArray  type="Float64"  NumberOfComponents="3"  format="ascii">0 0 0  0.01 0 0  0.02 0 0  0.03 0 0  0.04 0 0  0.05 0 0  0.06 0 0  0.07000000000000001 0 0  0.08 0 0  0.09 0 0  0.1 0 0  0.11 0 0  0.12 0 0  0.13 0 0  0.14 0 0  0.15 0 0  0.16 0 0  0.17 0 0  0.18 0 0  0.19 0 0  0.2 0 0  0.21 0 0  0.22 0 0  0.23 0 0  0.24 0 0  0.25 0 0  0.26 0 0  0.27 0 0  0.28 0 0  0.29 0 0  0.3 0 0  0.31 0 0  0.32 0 0  0.33 0 0  0.34 0 0  0.35 0 0  0.36 0 0  0.37 0 0  0.38 0 0  0.39 0 0  0.4 0 0  0.41 0 0  0.42 0 0  0.43 0 0  0.44 0 0  0.45 0 0  0.46 0 0  0.47 0 0  0.48 0 0  0.49 0 0  0.5 0 0  0.51 0 0  0.52 0 0  0.53 0 0  0.54 0 0  0.55 0 0  0.5600000000000001 0 0  0.57 0 0  0.58 0 0  0.59 0 0  0.6 0 0  0.61 0 0  0.62 0 0  0.63 0 0  0.64 0 0  0.65 0 0  0.66 0 0  0.67 0 0  0.68 0 0  0.6899999999999999 0 0  0.7 0 0  0.71 0 0  0.72 0 0  0.73 0 0  0.74 0 0  0.75 0 0  0.76 0 0  0.77 0 0  0.78 0 0  0.79 0 0  0.8 0 0  0.8100000000000001 0 0  0.82 0 0  0.83 0 0  0.84 0 0  0.85 0 0  0.86 0 0  0.87 0 0  0.88 0 0  0.89 0 0  0.9 0 0  0.91 0 0  0.92 0 0  0.93 0 0  0.9399999999999999 0 0  0.95 0 0  0.96 0 0  0.97 0 0  0.98 0 0  0.99 0 0  1 0 0  0 0.01 0  0.01 0.01 0  0.02 0.01 0  0.03 0.01 0  0.04 0.01 0  0.05 0.01 0  0.06 0.01 0  0.07000000000000001 0.01 0  0.08 0.01 0  0.09 0.01 0  0.1 0.01 0  0.11 0.01 0  0.12 0.01 0  0.13 0.01 0  0.14 0.01 0  0.15 0.01 0  0.16 0.01 0  0.17 0.01 0  0.18 0.01 0  0.19 0.01 0  0.2 0.01 0  0.21 0.01 0  0.22 0.01 0  0.23 0.01 0  0.24 0.01 0  0.25 0.01 0  0.26 0.01 0  0.27 0.01 0  0.28 0.01 0  0.29 0.01 0  0.3 0.01 0  0.31 0.01 0  0.32 0.01 0  0.33 0.01 0  0.34 0.01 0  0.35 0.01 0  0.36 0.01 0  0.37 0.01 0  0.38 0.01 0  0.39 0.01 0  0.4 0.01 0  0.41 0.01 0  0.42 0.01 0  0.43 0.01 0  0.44 0.01 0  0.45 0.01 0  0.46 0.01 0  0.47 0.01 0  0.48 0.01 0  0.49 0.01 0  0.5 0.01 0  0.51 0.01 0  0.52 0.01 0  0.53 0.01 0  0.54 0.01 0  0.55 0.01 0  0.5600000000000001 0.01 0  0.57 0.01 0  0.58 0.01 0  0.59 0.01 0  0.6 0.01 0  0.61 0.01 0  0.62 0.01 0  0.63 0.01 0  0.64 0.01 0  0.65 0.01 0  0.66 0.01 0  0.67 0.01 0  0.68 0.01 0  0.6899999999999999 0.01 0  0.7 0.01 0  0.71 0.01 0  0.72 0.01 0  0.73 0.01 0  0.74 0.01 0  0.75 0.01 0  0.76 0.01 0  0.77 0.01 0  0.78 0.01 0  0.79 0.01 0  0.8 0.01 0  0.8100000000000001 0.01 0  0.82 0.01 0  0.83 0.01 0  0.84 0.01 0  0.85 0.01 0  0.86 0.01 0  0.87 0.01 0  0.88 0.01 0  0.89 0.01 0  0.9 0.01 0  0.91 0.01 0  0.92 0.01 0  0.93 0.01 0  0.9399999999999999 0.01 0  0.95 0.01 0  0.96 0.01 0  0.97 0.01 0  0.98 0.01 0  0.99 0.01 0  1 0.01 0  0 0.02 0  0.01 0.02 0  0.02 0.02 0  0.03 0.02 0  0.04 0.02 0  0.05 0.02 0  0.06 0.02 0  0.07000000000000001 0.02 0  0.08 0.02 0  0.09 0.02 0  0.1 0.02 0  0.11 0.02 0  0.12 0.02 0  0.13 0.02 0  0.14 0.02 0  0.15 0.02 0  0.16 0.02 0  0.17 0.02 0  0.18 0.02 0  0.19 0.02 0  0.2 0.02 0  0.21 0.02 0  0.22 0.02 0  0.23 0.02 0  0.24 0.02 0  0.25 0.02 0  0.26 0.02 0  0.27 0.02 0  0.28 0.02 0  0.29 0.02 0  0.3 0.02 0  0.31 0.02 0  0.32 0.02 0  0.33 0.02 0  0.34 0.02 0  0.35 0.02 0  0.36 0.02 0  0.37 0.02 0  0.38 0.02 0  0.39 0.02 0  0.4 0.02 0  0.41 0.02 0  0.42 0.02 0  0.43 0.02 0  0.44 0.02 0  0.45 0.02 0  0.46 0.02 0  0.47 0.02 0  0.48 0.02 0  0.49 0.02 0  0.5 0.02 0  0.51 0.02 0  0.52 0.02 0  0.53 0.02 0  0.54 0.02 0  0.55 0.02 0  0.5600000000000001 0.02 0  0.57 0.02 0  0.58 0.02 0  0.59 0.02 0  0.6 0.02 0  0.61 0.02 0  0.62 0.02 0  0.63 0.02 0  0.64 0.02 0  0.65 0.02 0  0.66 0.02 0  0.67 0.02 0  0.68 0.02 0  0.6899999999999999 0.02 0  0.7 0.02 0  0.71 0.02 0  0.72 0.02 0  0.73 0.02 0  0.74 0.02 0  0.75 0.02 0  0.76 0.02 0  0.77 0.02 0  0.78 0.02 0  0.79 0.02 0  0.8 0.02 0  0.8100000000000001 0.02 0  0.82 0.02 0  0.83 0.02 0  0.84 0.02 0  0.85 0.02 0  0.86 0.02 0  0.87 0.02 0  0.88 0.02 0  0.89 0.02 0  0.9 0.02 0  0.91 0.02 0  0.92 0.02 0  0.93 0.02 0  0.9399999999999999 0.02 0  0.95 0.02 0  0.96 0.02 0  0.97 0.02 0  0.98 0.02 0  0.99 0.02 0  1 0.02 0  0 0.03 0  0.01 0.03 0  0.02 0.03 0  0.03 0.03 0  0.04 0.03 0  0.05 0.03 0  0.06 0.03 0  0.07000000000000001 0.03 0  0.08 0.03 0  0.09 0.03 0  0.1 0.03 0  0.11 0.03 0  0.12 0.03 0  0.13 0.03 0  0.14 0.03 0  0.15 0.03 0  0.16 0.03 0  0.17 0.03 0  0.18 0.03 0  0.19 0.03 0  0.2 0.03 0  0.21 0.03 0  0.22 0.03 0  0.23 0.03 0  0.24 0.03 0  0.25 0.03 0  0.26 0.03 0  0.27 0.03 0  0.28 0.03 0  0.29 0.03 0  0.3 0.03 0  0.31 0.03 0  0.32 0.03 0  0.33 0.03 0  0.34 0.03 0  0.35 0.03 0  0.36 0.03 0  0.37 0.03 0  0.38 0.03 0  0.39 0.03 0  0.4 0.03 0  0.41 0.03 0  0.42 0.03 0  0.43 0.03 0  0.44 0.03 0  0.45 0.03 0  0.46 0.03 0  0.47 0.03 0  0.48 0.03 0  0.49 0.03 0  0.5 0.03 0  0.51 0.03 0  0.52 0.03 0  0.53 0.03 0  0.54 0.03 0  0.55 0.03 0  0.5600000000000001 0.03 0  0.57 0.03 0  0.58 0.03 0  0.59 0.03 0  0.6 0.03 0  0.61 0.03 0  0.62 0.03 0  0.63 0.03 0  0.64 0.03 0  0.65 0.03 0  0.66 0.03 0  0.67 0.03 0  0.68 0.03 0  0.6899999999999999 0.03 0  0.7 0.03 0  0.71 0.03 0  0.72 0.03 0  0.73 0.03 0  0.74 0.03 0  0.75 0.03 0  0.76 0.03 0  0.77 0.03 0  0.78 0.03 0  0.79 0.03 0  0.8 0.03 0  0.8100000000000001 0.03 0  0.82 0.03 0  0.83 0.03 0  0.84 0.03 0  0.85 0.03 0  0.86 0.03 0  0.87 0.03 0  0.88 0.03 0  0.89 0.03 0  0.9 0.03 0  0.91 0.03 0  0.92 0.03 0  0.93 0.03 0  0.9399999999999999 0.03 0  0.95 0.03 0  0.96 0.03 0  0.97 0.03 0  0.98 0.03 0  0.99 0.03 0  1 0.03 0  0 0.04 0  0.01 0.04 0  0.02 0.04 0  0.03 0.04 0  0.04 0.04 0  0.05 0.04 0  0.06 0.04 0  0.07000000000000001 0.04 0  0.08 0.04 0  0.09 0.04 0  0.1 0.04 0  0.11 0.04 0  0.12 0.04 0  0.13 0.04 0  0.14 0.04 0  0.15 0.04 0  0.16 0.04 0  0.17 0.04 0  0.18 0.04 0  0.19 0.04 0  0.2 0.04 0  0.21 0.04 0  0.22 0.04 0  0.23 0.04 0  0.24 0.04 0  0.25 0.04 0  0.26 0.04 0  0.27 0.04 0  0.28 0.04 0  0.29 0.04 0  0.3 0.04 0  0.31 0.04 0  0.32 0.04 0  0.33 0.04 0  0.34 0.04 0  0.35 0.04 0  0.36 0.04 0  0.37 0.04 0  0.38 0.04 0  0.39 0.04 0  0.4 0.04 0  0.41 0.04 0  0.42 0.04 0  0.43 0.04 0  0.44 0.04 0  0.45 0.04 0  0.46 0.04 0  0.47 0.04 0  0.48 0.04 0  0.49 0.04 0  0.5 0.04 0  0.51 0.04 0  0.52 0.04 0  0.53 0.04 0  0.54 0.04 0  0.55 0.04 0  0.5600000000000001 0.04 0  0.57 0.04 0  0.58 0.04 0  0.59 0.04 0  0.6 0.04 0  0.61 0.04 0  0.62 0.04 0  0.63 0.04 0  0.64 0.04 0  0.65 0.04 0  0.66 0.04 0  0.67 0.04 0  0.68 0.04 0  0.6899999999999999 0.04 0  0.7 0.04 0  0.71 0.04 0  0.72 0.04 0  0.73 0.04 0  0.74 0.04 0  0.75 0.04 0  0.76 0.04 0  0.77 0.04 0  0.78 0.04 0  0.79 0.04 0  0.8 0.04 0  0.8100000000000001 0.04 0  0.82 0.04 0  0.83 0.04 0  0.84 0.04 0  0.85 0.04 0  0.86 0.04 0  0.87 0.04 0  0.88 0.04 0  0.89 0.04 0  0.9 0.04 0  0.91 0.04 0  0.92 0.04 0  0.93 0.04 0  0.9399999999999999 0.04 0  0.95 0.04 0  0.96 0.04 0  0.97 0.04 0  0.98 0.04 0  0.99 0.04 0  1 0.04 0  0 0.05 0  0.01 0.05 0  0.02 0.05 0  0.03 0.05 0  0.04 0.05 0  0.05 0.05 0  0.06 0.05 0  0.07000000000000001 0.05 0  0.08 0.05 0  0.09 0.05 0  0.1 0.05 0  0.11 0.05 0  0.12 0.05 0  0.13 0.05 0  0.14 0.05 0  0.15 0.05 0  0.16 0.05 0  0.17 0.05 0  0.18 0.05 0  0.19 0.05 0  0.2 0.05 0  0.21 0.05 0  0.22 0.05 0  0.23 0.05 0  0.24 0.05 0  0.25 0.05 0  0.26 0.05 0  0.27 0.05 0  0.28 0.05 0  0.29 0.05 0  0.3 0.05 0  0.31 0.05 0  0.32 0.05 0  0.33 0.05 0  0.34 0.05 0  0.35 0.05 0  0.36 0.05 0  0.37 0.05 0  0.38 0.05 0  0.39 0.05 0  0.4 0.05 0  0.41 0.05 0  0.42 0.05 0  0.43 0.05 0  0.44 0.05 0  0.45 0.05 0  0.46 0.05 0  0.47 0.05 0  0.48 0.05 0  0.49 0.05 0  0.5 0.05 0  0.51 0.05 0  0.52 0.05 0  0.53 0.05 0  0.54 0.05 0  0.55 0.05 0  0.5600000000000001 0.05 0  0.57 0.05 0  0.58 0.05 0  0.59 0.05 0  0.6 0.05 0  0.61 0.05 0  0.62 0.05 0  0.63 0.05 0  0.64 0.05 0  0.65 0.05 0  0.66 0.05 0  0.67 0.05 0  0.68 0.05 0  0.6899999999999999 0.05 0  0.7 0.05 0  0.71 0.05 0  0.72 0.05 0  0.73 0.05 0  0.74 0.05 0  0.75 0.05 0  0.76 0.05 0  0.77 0.05 0  0.78 0.05 0  0.79 0.05 0  0.8 0.05 0  0.8100000000000001 0.05 0  0.82 0.05 0  0.83 0.05 0  0.84 0.05 0  0.85 0.05 0  0.86 0.05 0  0.87 0.05 0  0.88 0.05 0  0.89 0.05 0  0.9 0.05 0  0.91 0.05 0  0.92 0.05 0  0.93 0.05 0  0.9399999999999999 0.05 0  0.95 0.05 0  0.96 0.05 0  0.97 0.05 0  0.98 0.05 0  0.99 0.05 0  1 0.05 0  0 0.06 0  0.01 0.06 0  0.02 0.06 0  0.03 0.06 0  0.04 0.06 0  0.05 0.06 0  0.06 0.06 0  0.07000000000000001 0.06 0  0.08 0.06 0  0.09 0.06 0  0.1 0.06 0  0.11 0.06 0  0.12 0.06 0  0.13 0.06 0  0.14 0.06 0  0.15 0.06 0  0.16 0.06 0  0.17 0.06 0  0.18 0.06 0  0.19 0.06 0  0.2 0.06 0  0.21 0.06 0  0.22 0.06 0  0.23 0.06 0  0.24 0.06 0  0.25 0.06 0  0.26 0.06 0  0.27 0.06 0  0.28 0.06 0  0.29 0.06 0  0.3 0.06 0  0.31 0.06 0  0.32 0.06 0  0.33 0.06 0  0.34 0.06 0  0.35 0.06 0  0.36 0.06 0  0.37 0.06 0  0.38 0.06 0  0.39 0.06 0  0.4 0.06 0  0.41 0.06 0  0.42 0.06 0  0.43 0.06 0  0.44 0.06 0  0.45 0.06 0  0.46 0.06 0  0.47 0.06 0  0.48 0.06 0  0.49 0.06 0  0.5 0.06 0  0.51 0.06 0  0.52 0.06 0  0.53 0.06 0  0.54 0.06 0  0.55 0.06 0  0.5600000000000001 0.06 0  0.57 0.06 0  0.58 0.06 0  0.59 0.06 0  0.6 0.06 0  0.61 0.06 0  0.62 0.06 0  0.63 0.06 0  0.64 0.06 0  0.65 0.06 0  0.66 0.06 0  0.67 0.06 0  0.68 0.06 0  0.6899999999999999 0.06 0  0.7 0.06 0  0.71 0.06 0  0.72 0.06 0  0.73 0.06 0  0.74 0.06 0  0.75 0.06 0  0.76 0.06 0  0.77 0.06 0  0.78 0.06 0  0.79 0.06 0  0.8 0.06 0  0.8100000000000001 0.06 0  0.82 0.06 0  0.83 0.06 0  0.84 0.06 0  0.85 0.06 0  0.86 0.06 0  0.87 0.06 0  0.88 0.06 0  0.89 0.06 0  0.9 0.06 0  0.91 0.06 0  0.92 0.06 0  0.93 0.06 0  0.9399999999999999 0.06 0  0.95 0.06 0  0.96 0.06 0  0.97 0.06 0  0.98 0.06 0  0.99 0.06 0  1 0.06 0  0 0.07000000000000001 0  0.01 0.07000000000000001 0  0.02 0.07000000000000001 0  0.03 0.07000000000000001 0  0.04 0.07000000000000001 0  0.05 0.07000000000000001 0  0.06 0.07000000000000001 0  0.07000000000000001 0.07000000000000001 0  0.08 0.07000000000000001 0  0.09 0.07000000000000001 0  0.1 0.07000000000000001 0  0.11 0.07000000000000001 0  0.12 0.07000000000000001 0  0.13 0.07000000000000001 0  0.14 0.07000000000000001 0  0.15 0.07000000000000001 0  0.16 0.07000000000000001 0  0.17 0.0700
[...]
<PointData  Scalars="f_17"> 
<DataArray  type="Float64"  Name="f_17"  format="ascii">0.0000000000000000e+00  5.0000000000000000e+01  5.0000000000000000e+01  5.0000000000000000e+01  5.0000000000000000e+01  5.0000000000000000e+01  5.0000000000000000e+01  5.0000000000000000e+01  5.0000000000000000e+01  5.0000000000000000e+01  5.0000000000000000e+01  5.0000000000000000e+01  5.0000000000000000e+01  5.0000000000000000e+01  5.0000000000000000e+01  5.0000000000000000e+01  5.0000000000000000e+01  5.0000000000000000e+01  5.0000000000000000e+01  5.0000000000000000e+01  5.0000000000000000e+01  5.0000000000000000e+01  5.0000000000000000e+01  5.0000000000000000e+01  5.0000000000000000e+01  5.0000000000000000e+01  5.0000000000000000e+01  5.0000000000000000e+01  5.0000000000000000e+01  5.0000000000000000e+01  5.0000000000000000e+01  5.0000000000000000e+01  5.0000000000000000e+01  5.0000000000000000e+01  5.0000000000000000e+01  5.0000000000000000e+01  5.0000000000000000e+01  5.0000000000000000e+01  5.0000000000000000e+01  5.0000000000000000e+01  5.0000000000000000e+01  5.0000000000000000e+01  5.0000000000000000e+01  5.0000000000000000e+01  5.0000000000000000e+01  5.0000000000000000e+01  5.0000000000000000e+01  5.0000000000000000e+01  5.0000000000000000e+01  5.0000000000000000e+01  5.0000000000000000e+01  5.0000000000000000e+01  5.0000000000000000e+01  5.0000000000000000e+01  5.0000000000000000e+01  5.0000000000000000e+01  5.0000000000000000e+01  5.0000000000000000e+01  5.0000000000000000e+01  5.0000000000000000e+01  5.0000000000000000e+01  5.0000000000000000e+01  5.0000000000000000e+01  5.0000000000000000e+01  5.0000000000000000e+01  5.0000000000000000e+01  5.0000000000000000e+01  5.0000000000000000e+01  5.0000000000000000e+01  5.0000000000000000e+01  5.0000000000000000e+01  5.0000000000000000e+01  5.0000000000000000e+01  5.0000000000000000e+01  5.0000000000000000e+01  5.0000000000000000e+01  5.0000000000000000e+01  5.0000000000000000e+01  5.0000000000000000e+01  5.0000000000000000e+01  5.0000000000000000e+01  5.0000000000000000e+01  5.0000000000000000e+01  5.0000000000000000e+01  5.0000000000000000e+01  5.0000000000000000e+01  5.0000000000000000e+01  5.0000000000000000e+01  5.0000000000000000e+01  5.0000000000000000e+01  5.0000000000000000e+01  5.0000000000000000e+01  5.0000000000000000e+01  5.0000000000000000e+01  5.0000000000000000e+01  5.0000000000000000e+01  5.0000000000000000e+01  5.0000000000000000e+01  5.0000000000000000e+01  5.0000000000000000e+01  0.0000000000000000e+00  0.0000000000000000e+00  2.4930302116301604e+01  3.5114396064805426e+01  3.9551883711787738e+01  4.1925352362913010e+01  4.3371497421705271e+01  4.4330443954759879e+01  4.5004013351837514e+01  4.5496882784628475e+01  4.5868532326949754e+01  4.6155197330353310e+01  4.6380192545492072e+01  4.6559193046075379e+01  4.6703123804844338e+01  4.6819830470681659e+01  4.6915090893151167e+01  4.6993251846041815e+01  4.7057643461769693e+01  4.7110856946935975e+01  4.7154935508812663e+01  4.7191508638195131e+01  4.7221888503276894e+01  4.7247140436435629e+01  4.7268135352078104e+01  4.7285589332891092e+01  4.7300093951603323e+01  4.7312139800343452e+01  4.7322134968219999e+01  4.7330419710781932e+01  4.7337278212109133e+01  4.7342948100302344e+01  4.7347628207000533e+01  4.7351484939467596e+01  4.7354657545196162e+01  4.7357262484002305e+01  4.7359397074445674e+01  4.7361142545388155e+01  4.7362566596280956e+01  4.7363725548994587e+01  4.7364666157980700e+01  4.7365427133067840e+01  4.7366040419346724e+01  4.7366532270747172e+01  4.7366924147562784e+01  4.7367233462984615e+01  4.7367474199387750e+01  4.7367657411476316e+01  4.7367791630272002e+01  4.7367883179215006e+01  4.7367936411229863e+01  4.7367953873427041e+01  4.7367936404093001e+01  4.7367883164715863e+01  4.7367791607956299e+01  4.7367657380654258e+01  4.7367474159124455e+01  4.7367233412087224e+01  4.7366924084565348e+01  4.7366532193893072e+01  4.7366040326569198e+01  4.7365427021969587e+01  4.7364666025812753e+01  4.7363725392635700e+01  4.7362566412217696e+01  4.7361142329697635e+01  4.7359396822781548e+01  4.7357262191585150e+01  4.7354657206809584e+01  4.7351484549461588e+01  4.7347627759303187e+01  4.7342947588441525e+01  4.7337277629244504e+01  4.7330419049749374e+01  4.7322134221588541e+01  4.7312138960485434e+01  4.7300093010778106e+01  4.7285588283341731e+01  4.7268134186140628e+01  4.7247139146659556e+01  4.7221887082554503e+01  4.7191507079897775e+01  4.7154933806931368e+01  4.7110855096221059e+01  4.7057641457866630e+01  4.6993249685617918e+01  4.6915088574007363e+01  4.6819827991844498e+01  4.6703121166630794e+01  4.6559190250124239e+01  4.6380189594753972e+01  4.6155194229029910e+01  4.5868529080368610e+01  4.5496879399035308e+01  4.5004009834068079e+01  4.4330440311714568e+01  4.3371493659428509e+01  4.1925348484684619e+01  3.9551879713055527e+01  3.5114391915180732e+01  2.4930297674308484e+01  0.0000000000000000e+00  0.0000000000000000e+00  1.4607433848871912e+01  2.4722452507477094e+01  3.0869415510553676e+01  3.4689751624791683e+01  3.7199939668011780e+01  3.8935678305842451e+01  4.0186113262761303e+01  4.1116167977583494e+01  4.1825327988255367e+01  4.2376667938074540e+01  4.2811921815008645e+01  4.3159724287777451e+01  4.3440338849661394e+01  4.3668488628055215e+01  4.3855116117722211e+01  4.4008513873419950e+01  4.4135072563162183e+01  4.4239788894522931e+01  4.4326618606391342e+01  4.4398726980703358e+01  4.4458670038835592e+01  4.4508527897195194e+01  4.4550004489546353e+01  4.4584503240913449e+01  4.4613185275110816e+01  4.4637014749917810e+01  4.4656794574658129e+01  4.4673194848308604e+01  4.4686775719699817e+01  4.4698005923363127e+01  4.4707277925362419e+01  4.4714920383373297e+01  4.4721208457661689e+01  4.4726372386245707e+01  4.4730604645834212e+01  4.4734065951318989e+01  4.4736890294456124e+01  4.4739189182472032e+01  4.4741055206487502e+01  4.4742565045558294e+01  4.4743781993097365e+01  4.4744758077224574e+01  4.4745535834270648e+01  4.4746149784553360e+01  4.4746627651130275e+01  4.4746991355124372e+01  4.4747257815115596e+01  4.4747439572765103e+01  4.4747545262098591e+01  4.4747579935585726e+01  4.4747545256179777e+01  4.4747439560732815e+01  4.4747257796577401e+01  4.4746991329484139e+01  4.4746627617578909e+01  4.4746149742057042e+01  4.4745535781556832e+01  4.4744758012765736e+01  4.4743781915092640e+01  4.4742564951914353e+01  4.4741055094798867e+01  4.4739189050001357e+01  4.4736890138115257e+01  4.4734065767652432e+01  4.4730604431004977e+01  4.4726372136025596e+01  4.4721208167426447e+01  4.4714920048104467e+01  4.4707277539656680e+01  4.4698005481450544e+01  4.4686775215471890e+01  4.4673194275357403e+01  4.4656793926326351e+01  4.4637014019361672e+01  4.4613184455374203e+01  4.4584502325013801e+01  4.4550003470571454e+01  4.4508526768409261e+01  4.4458668793791986e+01  4.4398725613361911e+01  4.4326617111236914e+01  4.4239787266680501e+01  4.4135070798503733e+01  4.4008511968658141e+01  4.3855114070484511e+01  4.3668486436931012e+01  4.3440336514214835e+01  4.3159721808517034e+01  4.2811919193302963e+01  4.2376665176000465e+01  4.1825325088359591e+01  4.1116164942529380e+01  4.0186110094810196e+01  3.8935675006076686e+01  3.7199936235109867e+01  3.4689748052969435e+01  3.0869411786058365e+01  2.4722448604798082e+01  1.4607429754137289e+01  0.0000000000000000e+00  0.0000000000000000e+00  1.0032415769446493e+01  1.8301046388667352e+01  2.4380166366430210e+01  2.8692740610269993e+01  3.1771190173256450e+01  3.4014407048516645e+01  3.5686830604463196e+01  3.6960122172859691e+01  3.7947105696911350e+01  3.8723687551387684e+01  3.9342277702461601e+01  3.9839987020184616e+01  4.0243712739434805e+01  4.0573363603336013e+01  4.0843954253005322e+01  4.1066997477402701e+01  4.1251450522390876e+01  4.1404371819512434e+01  4.1531385651617562e+01  4.1637016880043163e+01  4.1724936121479821e+01  4.1798142136806931e+01  4.1859099483595401e+01  4.1909843811606734e+01  4.1952063422177083e+01  4.1987163181554692e+01  4.2016315148315783e+01  4.2040499075906801e+01  4.2060535109446285e+01  4.2077110397644354e+01  4.2090800910777780e+01  4.2102089443456350e+01  4.2111380551943256e+01  4.2119013006248657e+01  4.2125270210514380e+01  4.2130388949648449e+01  4.2134566747428252e+01  4.2137968065393181e+01  4.2140729528465521e+01  4.2142964329217399e+01  4.2144765935724728e+01  4.2146211206304741e+01  4.2147362996849282e+01  4.2148272331987663e+01  4.2148980199223175e+01  4.2149519014939223e+01  4.2149913802347925e+01  4.2150183113724410e+01  4.2150339722385297e+01  4.2150391103612812e+01  4.2150339717930535e+01  4.2150183104653877e+01  4.2149913788336626e+01  4.2149518995492379e+01  4.2148980173667560e+01  4.2148272299460508e+01  4.2147362956284283e+01  4.2146211156416534e+01  4.2144765874991116e+01  4.2142964255860377e+01  4.2140729440431663e+01  4.2137967960333675e+01  4.2134566622679593e+01  4.2130388802214668e+01  4.2125270037051791e+01  4.2119012803053778e+01  4.2111380314945571e+01  4.2102089168216814e+01  4.2090800592494226e+01  4.2077110031165184e+01  4.2060534689293121e+01  4.2040498596307451e+01  4.2016314603247721e+01  4.1987162564800137e+01  4.1952062727388864e+01  4.1909843032385155e+01  4.1859098613574822e+01  4.1798141169750615e+01  4.1724935051380697e+01  4.1637015701227206e+01  4.1531384358847070e+01  4.1404370408083395e+01  4.1251448988219686e+01  4.1066995817096341e+01  4.0843952463907776e+01  4.0573361683542672e+01  4.0243710687766743e+01  3.9839984836111860e+01  3.9342275385963198e+01  3.8723685102733484e+01  3.7947103116345907e+01  3.6960119460158907e+01  3.5686827758323354e+01  3.4014404065715091e+01  3.1771187047508718e+01  2.8692737330766494e+01  2.4380162916469086e+01  1.8301042746501853e+01  1.0032411913400715e+01  0.0000000000000000e+00  0.0000000000000000e+00  7.5232609028686754e+00  1.4209947066072699e+01  1.9662961658414090e+01  2.3909499151978373e+01  2.7163804402807791e+01  2.9659607534808696e+01  3.1589678157036605e+01  3.3098536045309906e+01  3.4291143889492190e+01  3.5243366146118397e+01  3.6010427705429059e+01  3.6633025944736168e+01  3.7141579997693768e+01  3.7559156314876944e+01  3.7903489429365088e+01  3.8188390964638458e+01  3.8424744252474532e+01  3.8621215995007212e+01  3.8784772579897691e+01  3.8921059855880230e+01  3.9034686240513757e+01  3.9129436504374056e+01  3.9208435209994626e+01  3.9274273136379847e+01  3.9329106163785973e+01  3.9374733430063763e+01  3.9412659709394774e+01  3.9444145650450686e+01  3.9470248573508293e+01  3.9491855850417629e+01  3.9509712399767402e+01  3.9524443468726894e+01  3.9536573605797415e+01  3.9546542529109772e+01  3.9554718444565339e+01  3.9561409253926534e+01  3.9566872005464717e+01  3.9571320872121980e+01  3.9574933889337842e+01  3.9577858643048337e+01  3.9580217065172725e+01  3.9582109467129122e+01  3.9583617920062025e+01  3.9584809072377794e+01  3.9585736480007071e+01  3.9586442511892656e+01  3.9586959882023784e+01  3.9587312849511271e+01  3.9587518119409133e+01  3.9587585468977039e+01  3.9587518116639821e+01  3.9587312843847634e+01  3.9586959873212713e+01  3.9586442499547353e+01  3.9585736463598302e+01  3.9584809051222948e+01  3.9583617893311157e+01  3.9582109433748982e+01  3.9580217023928711e+01  3.9577858592484901e+01  3.9574933827757668e+01  3.9571320797564844e+01  3.9566871915685837e+01  3.9561409146376938e+01  3.9554718316373076e+01  3.9546542377064526e+01  3.9536573426338798e+01  3.9524443257938373e+01  3.9509712153376306e+01  3.9491855563802822e+01  3.9470248241716646e+01  3.9444145268223160e+01  3.9412659271203189e+01  3.9374732930158451e+01  3.9329105596254649e+01  3.9274272495216948e+01  3.9208434489180682e+01  3.9129435697962897e+01  3.9034685342725759e+01  3.8921058861197764e+01  3.8784771483159588e+01  3.8621214791496435e+01  3.8424742937994104e+01  3.8188389535568227e+01  3.7903487882692403e+01  3.7559154648191772e+01  3.7141578209139311e+01  3.6633024032903926e+01  3.6010425669185253e+01  3.5243363984347276e+01  3.4291141600738641e+01  3.3098533627299219e+01  3.1589675606046164e+01  2.9659604844868152e+01  2.7163801564727326e+01  2.3909496152292260e+01  1.9662958478526797e+01  1.4209943681945729e+01  7.5232572840656102e+00  0.0000000000000000e+00  0.0000000000000000e+00  5.9438490982714134e+00  1.1433823616089056e+01  1.6187095601185206e+01  2.0128057230124121e+01  2.3318657519091200e+01  2.5876304562643497e+01  2.7923475472286235e+01  2.9566882073572980e+01  3.0892709147836079e+01  3.1968316094465859e+01  3.2845722744351697e+01  3.3565052660608472e+01  3.4157387719244269e+01  3.4646977137679436e+01  3.5052897332226578e+01  3.5390285341194577e+01  3.5671253900040469e+01  3.5905572796917035e+01  3.6101179542137565e+01  3.6264565264354694e+01  3.6401068982621211e+01  3.6515104151490199e+01  3.6610334751156877e+01  3.6689813468467733e+01  3.6756091139898878e+01  3.6811304208946737e+01  3.6857245207733428e+01  3.6895420009271348e+01  3.6927094674830975e+01  3.6953334043347724e+01  3.6975033708487381e+01  3.6992946655454965e+01  3.7007705549357652e+01  3.7019841455143016e+01  3.7029799607929974e+01  3.7037952728927777e+01  3.7044612286581120e+01  3.7050038028088871e+01  3.7054446047848813e+01  3.7058015612833174e+01  3.7060894927528267e+01  3.7063205990724761e+01  3.7065048671497635e+01  3.7066504110937551e+01  3.7067637538652406e+01  3.7068500578027972e+01  3.7069133101162883e+01  3.7069564682837814e+01  3.7069815692491765e+01  3.7069898053676383e+01  3.7069815691601413e+01  3.7069564680969741e+01  3.7069133098139496e+01  3.7068500573575385e+01  3.7067637532391771e+01  3.7066504102373436e+01  3.7065048660003576e+01  3.7063205975526522e+01  3.7060894907684514e+01  3.7058015587214285e+01  3.7054446015114031e+01  3.7050037986662446e+01  3.7044612234627898e+01  3.7037952664329140e+01  3.7029799528261051e+01  3.7019841357652076e+01  3.7007705430948825e+01  3.6992946512675850e+01  3.6975033537522400e+01  3.6953333840018921e+01  3.6927094434607291e+01  3.6895419727287631e+01  3.6857244878820147e+01  3.6811303827671104e+01  3.6756090700617683e+01  3.6689812965391283e+01  3.6610334178423734e+01  3.6515103503250835e+01  3.6401068253128052e+01  3.6264564448055637e+01  3.6101178633768406e+01  3.5905571791587903e+01  3.5671252793309911e+01  3.5390284129123877e+01  3.5052896011406673e+01  3.4646975705220960e+01  3.4157386172720251e+01  3.3565050997939494e+01  3.2845720963620593e+01  3.1968314193649142e+01  3.0892707124437742e+01  2.9566879924146299e+01  2.7923473191831039e+01  2.5876302143875716e+01  2.3318654951602209e+01  2.0128054499486254e+01  1.6187092688074159e+01  1.1433820495329512e+01  5.9438457371968303e+00  0.0000000000000000e+00  0.0000000000000000e+00  4.8545979329118216e+00  9.4380601717662049e+00  1.3555294203700946e+01  1.7116830581942736e+01  2.0121005517324349e+01  2.2617743838268520e+01  2.4677461811648165e+01  2.6372238385769691e+01  2.7767059698291227e+01  2.8917025309189945e+01  2.9867429447429824e+01  3.0654960967014777e+01  3.1309170742962944e+01  3.1853849764054132e+01  3.2308199790146453e+01  3.2687782093550062e+01  3.3005268785415375e+01  3.3271031546569894e+01  3.3493601376248009e+01  3.3680027933239529e+01  3.3836161392641785e+01  3.3966874674587309e+01  3.4076239745590954e+01  3.4167668429806476e+01  3.4244025662751064e+01  3.4307721220427204e+01  3.4360784524225416e+01  3.4404926043707832e+01  3.4441588007317115e+01  3.4471986518218920e+01  3.4497146708533407e+01  3.4517932212598431e+01  3.4535069970697812e+01  3.4549171168112650e+01  3.4560748954945588e+01  3.4570233468393653e+01  3.4577984582371400e+01  3.4584302733147027e+01  3.4589438109078920e+01  3.4593598443959749e+01  3.4596955614114492e+01  3.4599651207147467e+01  3.4601801203494816e+01  3.4603499889478428e+01  3.4604823101441539e+01  3.4605830884042120e+01  3.4606569631318621e+01  3.4607073766277246e+01  3.4607367003114661e+01  3.4607463225492197e+01  3.4607367004265733e+01  3.4607073768531137e+01  3.4606569634575663e+01  3.4605830888145171e+01  3.4604823106166492e+01  3.4603499894521846e+01  3.4601801208458518e+01  3.4599651211520239e+01  3.4596955617250963e+01  3.4593598445056720e+01  3.4589438107149498e+01  3.4584302726993336e+01  3.4577984570555657e+01  3.4570233449209276e+01  3.4560748926388541e+01  3.4549171127854670e+01  3.4535069916062199e+01  3.4517932140540118e+01  3.4497146615624573e+01  3.4471986400642152e+01  3.4441587860866669e+01  3.4404925863801367e+01  3.4360784305926870e+01  3.4307720958481895e+01  3.4244025351633695e+01  3.4167668063781804e+01  3.4076239318786534e+01  3.3966874181077046e+01  3.3836160826537672e+01  3.3680027288788459e+01  3.3493600647929220e+01  3.3271030729187665e+01  3.3005267874180461e+01  3.2687781084142088e+01  3.2308198678748759e+01  3.1853848547351930e+01  3.1309169418093777e+01  3.0654959531461049e+01  2.9867427898841655e+01  2.8917023645127230e+01  2.7767057915874005e+01  2.6372236481227954e+01  2.4677459779766579e+01  2.2617741671729163e+01  2.0121003205963284e+01  1.7116828111944777e+01  1.3555291556739155e+01  9.4380573240208037e+00  4.8545948538064376e+00  0.0000000000000000e+00  0.0000000000000000e+00  4.0541893267612155e+00  7.9345153183599946e+00  1.1504618825052944e+01  1.4685039948826681e+01  1.7450842347654937e+01  1.9816449962090530e+01  2.1818448944239556e+01  2.3502276173843214e+01  2.4913988741783196e+01  2.6096058169188357e+01  2.7085715552911747e+01  2.7914689114671937e+01  2.8609600021704789e+01  2.9192606660056885e+01  2.9682090675138177e+01  3.0093292174468115e+01  3.0438860715346145e+01  3.0729317163671560e+01  3.0973433775265796e+01  3.1178544048219223e+01  3.1350794333549075e+01  3.1495348062078012e+01  3.1616551811867506e+01  3.1718070787381940e+01  3.1802999804934871e+01  3.1873954637162321e+01  3.1933147558942427e+01  3.1982450130851770e+01  3.2023445619967866e+01  3.2057472958938142e+01  3.2085663754317508e+01  3.2108973550704690e+01  3.2128208319283331e+01  3.2144046953054477e+01  3.2157060404664684e+01  3.2167727987218541e+01  3.2176451266813139e+01  3.2183565902332070e+01  3.2189351729131722e+01  3.2194041335430008e+01  3.2197827341007390e+01  3.2200868555345515e+01  3.2203295165098837e+01  3.2205213077683673e+01  3.2206707527895297e+01  3.2207846037143661e+01  3.2208680799585863e+01  3.2209250555697878e+01  3.2209582001319525e+01  3.2209690768631766e+01  3.2209582004641376e+01  3.2209250562333338e+01  3.2208680809515009e+01  3.2207846050328293e+01  3.2206707544268724e+01  3.2205213097137324e+01  3.2203295187465166e+01  3.2200868580377964e+01  3.2197827368356663e+01  3.2194041364617213e+01  3.2189351759518999e+01  3.2183565933090563e+01  3.2176451296889006e+01  3.2167728015297946e+01  3.2157060429138525e+01  3.2144046971984125e+01  3.2128208330368437e+01  3.2108973551255040e+01  3.2085663741229922e+01  3.2057472928681108e+01  3.2023445568574594e+01  3.1982450053924321e+01  3.1933147451667924e+01  3.1873954494342957e+01  3.1802999621032040e+01  3.1718070556575501e+01  3.1616551528129222e+01  3.1495347719258149e+01  3.1350793925474083e+01  3.1178543568796922e+01  3.0973433218593993e+01  3.0729316524144046e+01  3.0438859987749858e+01  3.0093291354062917e+01  2.9682089757710802e+01  2.9192605641939039e+01  2.8609598899745077e+01  2.7914687886150908e+01  2.7085714215389821e+01  2.6096056720276376e+01  2.4913987178827941e+01  2.3502274493522016e+01  2.1818447142063956e+01  1.9816448031823775e+01  1.7450840280656458e+01  1.4685037733338726e+01  1.1504616445438495e+01  7.9345127542913367e+00  4.0541865523589200e+00  0.0000000000000000e+00  0.0000000000000000e+00  3.4384042594293560e+00  6.7591798214361063e+00  9.8647742318681466e+00  1.2689977380865399e+01  1.5203705649822897e+01  1.7403021191873286e+01  1.9304093361854122e+01  2.0933707017960234e+01  2.2322921274913117e+01  2.3503030249380565e+01  2.4503337148340943e+01  2.5350142272266691e+01  2.6066455802844100e+01  2.6672100177387673e+01  2.7183995248417769e+01  2.7616508387564824e+01  2.7981807419906680e+01  2.8290186894186842e+01  2.8550356241026044e+01  2.8769687770780337e+01  2.8954426959009272e