<?xml version="1.0"?>
<VTKFile type="UnstructuredGrid"  version="0.1"  >
<UnstructuredGrid>
<Piece  NumberOfPoints="10201" NumberOfCells="20000">
<Points>
<DataArray  type="Float64"  NumberOfComponents="3"  format="ascii">0 0 0  0.01 0 0  0.02 0 0  0.03 0 0  0.04 0 0  0.05 0 0  0.06 0 0  0.07000000000000001 0 0  0.08 0 0  0.09 0 0  0.1 0 0  0.11 0 0  0.12 0 0  0.13 0 0  0.14 0 0  0.15 0 0  0.16 0 0  0.17 0 0  0.18 0 0  0.19 0 0  0.2 0 0  0.21 0 0  0.22 0 0  0.23 0 0  0.24 0 0  0.25 0 0  0.26 0 0  0.27 0 0  0.28 0 0  0.29 0 0  0.3 0 0  0.31 0 0  0.32 0 0  0.33 0 0  0.34 0 0  0.35 0 0  0.36 0 0  0.37 0 0  0.38 0 0  0.39 0 0  0.4 0 0  0.41 0 0  0.42 0 0  0.43 0 0  0.44 0 0  0.45 0 0  0.46 0 0  0.47 0 0  0.48 0 0  0.49 0 0  0.5 0 0  0.51 0 0  0.52 0 0  0.53 0 0  0.54 0 0  0.55 0 0  0.5600000000000001 0 0  0.57 0 0  0.58 0 0  0.59 0 0  0.6 0 0  0.61 0 0  0.62 0 0  0.63 0 0  0.64 0 0  0.65 0 0  0.66 0 0  0.67 0 0  0.68 0 0  0.6899999999999999 0 0  0.7 0 0  0.71 0 0  0.72 0 0  0.73 0 0  0.74 0 0  0.75 0 0  0.76 0 0  0.77 0 0  0.78 0 0  0.79 0 0  0.8 0 0  0.8100000000000001 0 0  0.82 0 0  0.83 0 0  0.84 0 0  0.85 0 0  0.86 0 0  0.87 0 0  0.88 0 0  0.89 0 0  0.9 0 0  0.91 0 0  0.92 0 0  0.93 0 0  0.9399999999999999 0 0  0.95 0 0  0.96 0 0  0.97 0 0  0.98 0 0  0.99 0 0  1 0 0  0 0.01 0  0.01 0.01 0  0.02 0.01 0  0.03 0.01 0  0.04 0.01 0  0.05 0.01 0  0.06 0.01 0  0.07000000000000001 0.01 0  0.08 0.01 0  0.09 0.01 0  0.1 0.01 0  0.11 0.01 0  0.12 0.01 0  0.13 0.01 0  0.14 0.01 0  0.15 0.01 0  0.16 0.01 0  0.17 0.01 0  0.18 0.01 0  0.19 0.01 0  0.2 0.01 0  0.21 0.01 0  0.22 0.01 0  0.23 0.01 0  0.24 0.01 0  0.25 0.01 0  0.26 0.01 0  0.27 0.01 0  0.28 0.01 0  0.29 0.01 0  0.3 0.01 0  0.31 0.01 0  0.32 0.01 0  0.33 0.01 0  0.34 0.01 0  0.35 0.01 0  0.36 0.01 0  0.37 0.01 0  0.38 0.01 0  0.39 0.01 0  0.4 0.01 0  0.41 0.01 0  0.42 0.01 0  0.43 0.01 0  0.44 0.01 0  0.45 0.01 0  0.46 0.01 0  0.47 0.01 0  0.48 0.01 0  0.49 0.01 0  0.5 0.01 0  0.51 0.01 0  0.52 0.01 0  0.53 0.01 0  0.54 0.01 0  0.55 0.01 0  0.5600000000000001 0.01 0  0.57 0.01 0  0.58 0.01 0  0.59 0.01 0  0.6 0.01 0  0.61 0.01 0  0.62 0.01 0  0.63 0.01 0  0.64 0.01 0  0.65 0.01 0  0.66 0.01 0  0.67 0.01 0  0.68 0.01 0  0.6899999999999999 0.01 0  0.7 0.01 0  0.71 0.01 0  0.72 0.01 0  0.73 0.01 0  0.74 0.01 0  0.75 0.01 0  0.76 0.01 0  0.77 0.01 0  0.78 0.01 0  0.79 0.01 0  0.8 0.01 0  0.8100000000000001 0.01 0  0.82 0.01 0  0.83 0.01 0  0.84 0.01 0  0.85 0.01 0  0.86 0.01 0  0.87 0.01 0  0.88 0.01 0  0.89 0.01 0  0.9 0.01 0  0.91 0.01 0  0.92 0.01 0  0.93 0.01 0  0.9399999999999999 0.01 0  0.95 0.01 0  0.96 0.01 0  0.97 0.01 0  0.98 0.01 0  0.99 0.01 0  1 0.01 0  0 0.02 0  0.01 0.02 0  0.02 0.02 0  0.03 0.02 0  0.04 0.02 0  0.05 0.02 0  0.06 0.02 0  0.07000000000000001 0.02 0  0.08 0.02 0  0.09 0.02 0  0.1 0.02 0  0.11 0.02 0  0.12 0.02 0  0.13 0.02 0  0.14 0.02 0  0.15 0.02 0  0.16 0.02 0  0.17 0.02 0  0.18 0.02 0  0.19 0.02 0  0.2 0.02 0  0.21 0.02 0  0.22 0.02 0  0.23 0.02 0  0.24 0.02 0  0.25 0.02 0  0.26 0.02 0  0.27 0.02 0  0.28 0.02 0  0.29 0.02 0  0.3 0.02 0  0.31 0.02 0  0.32 0.02 0  0.33 0.02 0  0.34 0.02 0  0.35 0.02 0  0.36 0.02 0  0.37 0.02 0  0.38 0.02 0  0.39 0.02 0  0.4 0.02 0  0.41 0.02 0  0.42 0.02 0  0.43 0.02 0  0.44 0.02 0  0.45 0.02 0  0.46 0.02 0  0.47 0.02 0  0.48 0.02 0  0.49 0.02 0  0.5 0.02 0  0.51 0.02 0  0.52 0.02 0  0.53 0.02 0  0.54 0.02 0  0.55 0.02 0  0.5600000000000001 0.02 0  0.57 0.02 0  0.58 0.02 0  0.59 0.02 0  0.6 0.02 0  0.61 0.02 0  0.62 0.02 0  0.63 0.02 0  0.64 0.02 0  0.65 0.02 0  0.66 0.02 0  0.67 0.02 0  0.68 0.02 0  0.6899999999999999 0.02 0  0.7 0.02 0  0.71 0.02 0  0.72 0.02 0  0.73 0.02 0  0.74 0.02 0  0.75 0.02 0  0.76 0.02 0  0.77 0.02 0  0.78 0.02 0  0.79 0.02 0  0.8 0.02 0  0.8100000000000001 0.02 0  0.82 0.02 0  0.83 0.02 0  0.84 0.02 0  0.85 0.02 0  0.86 0.02 0  0.87 0.02 0  0.88 0.02 0  0.89 0.02 0  0.9 0.02 0  0.91 0.02 0  0.92 0.02 0  0.93 0.02 0  0.9399999999999999 0.02 0  0.95 0.02 0  0.96 0.02 0  0.97 0.02 0  0.98 0.02 0  0.99 0.02 0  1 0.02 0  0 0.03 0  0.01 0.03 0  0.02 0.03 0  0.03 0.03 0  0.04 0.03 0  0.05 0.03 0  0.06 0.03 0  0.07000000000000001 0.03 0  0.08 0.03 0  0.09 0.03 0  0.1 0.03 0  0.11 0.03 0  0.12 0.03 0  0.13 0.03 0  0.14 0.03 0  0.15 0.03 0  0.16 0.03 0  0.17 0.03 0  0.18 0.03 0  0.19 0.03 0  0.2 0.03 0  0.21 0.03 0  0.22 0.03 0  0.23 0.03 0  0.24 0.03 0  0.25 0.03 0  0.26 0.03 0  0.27 0.03 0  0.28 0.03 0  0.29 0.03 0  0.3 0.03 0  0.31 0.03 0  0.32 0.03 0  0.33 0.03 0  0.34 0.03 0  0.35 0.03 0  0.36 0.03 0  0.37 0.03 0  0.38 0.03 0  0.39 0.03 0  0.4 0.03 0  0.41 0.03 0  0.42 0.03 0  0.43 0.03 0  0.44 0.03 0  0.45 0.03 0  0.46 0.03 0  0.47 0.03 0  0.48 0.03 0  0.49 0.03 0  0.5 0.03 0  0.51 0.03 0  0.52 0.03 0  0.53 0.03 0  0.54 0.03 0  0.55 0.03 0  0.5600000000000001 0.03 0  0.57 0.03 0  0.58 0.03 0  0.59 0.03 0  0.6 0.03 0  0.61 0.03 0  0.62 0.03 0  0.63 0.03 0  0.64 0.03 0  0.65 0.03 0  0.66 0.03 0  0.67 0.03 0  0.68 0.03 0  0.6899999999999999 0.03 0  0.7 0.03 0  0.71 0.03 0  0.72 0.03 0  0.73 0.03 0  0.74 0.03 0  0.75 0.03 0  0.76 0.03 0  0.77 0.03 0  0.78 0.03 0  0.79 0.03 0  0.8 0.03 0  0.8100000000000001 0.03 0  0.82 0.03 0  0.83 0.03 0  0.84 0.03 0  0.85 0.03 0  0.86 0.03 0  0.87 0.03 0  0.88 0.03 0  0.89 0.03 0  0.9 0.03 0  0.91 0.03 0  0.92 0.03 0  0.93 0.03 0  0.9399999999999999 0.03 0  0.95 0.03 0  0.96 0.03 0  0.97 0.03 0  0.98 0.03 0  0.99 0.03 0  1 0.03 0  0 0.04 0  0.01 0.04 0  0.02 0.04 0  0.03 0.04 0  0.04 0.04 0  0.05 0.04 0  0.06 0.04 0  0.07000000000000001 0.04 0  0.08 0.04 0  0.09 0.04 0  0.1 0.04 0  0.11 0.04 0  0.12 0.04 0  0.13 0.04 0  0.14 0.04 0  0.15 0.04 0  0.16 0.04 0  0.17 0.04 0  0.18 0.04 0  0.19 0.04 0  0.2 0.04 0  0.21 0.04 0  0.22 0.04 0  0.23 0.04 0  0.24 0.04 0  0.25 0.04 0  0.26 0.04 0  0.27 0.04 0  0.28 0.04 0  0.29 0.04 0  0.3 0.04 0  0.31 0.04 0  0.32 0.04 0  0.33 0.04 0  0.34 0.04 0  0.35 0.04 0  0.36 0.04 0  0.37 0.04 0  0.38 0.04 0  0.39 0.04 0  0.4 0.04 0  0.41 0.04 0  0.42 0.04 0  0.43 0.04 0  0.44 0.04 0  0.45 0.04 0  0.46 0.04 0  0.47 0.04 0  0.48 0.04 0  0.49 0.04 0  0.5 0.04 0  0.51 0.04 0  0.52 0.04 0  0.53 0.04 0  0.54 0.04 0  0.55 0.04 0  0.5600000000000001 0.04 0  0.57 0.04 0  0.58 0.04 0  0.59 0.04 0  0.6 0.04 0  0.61 0.04 0  0.62 0.04 0  0.63 0.04 0  0.64 0.04 0  0.65 0.04 0  0.66 0.04 0  0.67 0.04 0  0.68 0.04 0  0.6899999999999999 0.04 0  0.7 0.04 0  0.71 0.04 0  0.72 0.04 0  0.73 0.04 0  0.74 0.04 0  0.75 0.04 0  0.76 0.04 0  0.77 0.04 0  0.78 0.04 0  0.79 0.04 0  0.8 0.04 0  0.8100000000000001 0.04 0  0.82 0.04 0  0.83 0.04 0  0.84 0.04 0  0.85 0.04 0  0.86 0.04 0  0.87 0.04 0  0.88 0.04 0  0.89 0.04 0  0.9 0.04 0  0.91 0.04 0  0.92 0.04 0  0.93 0.04 0  0.9399999999999999 0.04 0  0.95 0.04 0  0.96 0.04 0  0.97 0.04 0  0.98 0.04 0  0.99 0.04 0  1 0.04 0  0 0.05 0  0.01 0.05 0  0.02 0.05 0  0.03 0.05 0  0.04 0.05 0  0.05 0.05 0  0.06 0.05 0  0.07000000000000001 0.05 0  0.08 0.05 0  0.09 0.05 0  0.1 0.05 0  0.11 0.05 0  0.12 0.05 0  0.13 0.05 0  0.14 0.05 0  0.15 0.05 0  0.16 0.05 0  0.17 0.05 0  0.18 0.05 0  0.19 0.05 0  0.2 0.05 0  0.21 0.05 0  0.22 0.05 0  0.23 0.05 0  0.24 0.05 0  0.25 0.05 0  0.26 0.05 0  0.27 0.05 0  0.28 0.05 0  0.29 0.05 0  0.3 0.05 0  0.31 0.05 0  0.32 0.05 0  0.33 0.05 0  0.34 0.05 0  0.35 0.05 0  0.36 0.05 0  0.37 0.05 0  0.38 0.05 0  0.39 0.05 0  0.4 0.05 0  0.41 0.05 0  0.42 0.05 0  0.43 0.05 0  0.44 0.05 0  0.45 0.05 0  0.46 0.05 0  0.47 0.05 0  0.48 0.05 0  0.49 0.05 0  0.5 0.05 0  0.51 0.05 0  0.52 0.05 0  0.53 0.05 0  0.54 0.05 0  0.55 0.05 0  0.5600000000000001 0.05 0  0.57 0.05 0  0.58 0.05 0  0.59 0.05 0  0.6 0.05 0  0.61 0.05 0  0.62 0.05 0  0.63 0.05 0  0.64 0.05 0  0.65 0.05 0  0.66 0.05 0  0.67 0.05 0  0.68 0.05 0  0.6899999999999999 0.05 0  0.7 0.05 0  0.71 0.05 0  0.72 0.05 0  0.73 0.05 0  0.74 0.05 0  0.75 0.05 0  0.76 0.05 0  0.77 0.05 0  0.78 0.05 0  0.79 0.05 0  0.8 0.05 0  0.8100000000000001 0.05 0  0.82 0.05 0  0.83 0.05 0  0.84 0.05 0  0.85 0.05 0  0.86 0.05 0  0.87 0.05 0  0.88 0.05 0  0.89 0.05 0  0.9 0.05 0  0.91 0.05 0  0.92 0.05 0  0.93 0.05 0  0.9399999999999999 0.05 0  0.95 0.05 0  0.96 0.05 0  0.97 0.05 0  0.98 0.05 0  0.99 0.05 0  1 0.05 0  0 0.06 0  0.01 0.06 0  0.02 0.06 0  0.03 0.06 0  0.04 0.06 0  0.05 0.06 0  0.06 0.06 0  0.07000000000000001 0.06 0  0.08 0.06 0  0.09 0.06 0  0.1 0.06 0  0.11 0.06 0  0.12 0.06 0  0.13 0.06 0  0.14 0.06 0  0.15 0.06 0  0.16 0.06 0  0.17 0.06 0  0.18 0.06 0  0.19 0.06 0  0.2 0.06 0  0.21 0.06 0  0.22 0.06 0  0.23 0.06 0  0.24 0.06 0  0.25 0.06 0  0.26 0.06 0  0.27 0.06 0  0.28 0.06 0  0.29 0.06 0  0.3 0.06 0  0.31 0.06 0  0.32 0.06 0  0.33 0.06 0  0.34 0.06 0  0.35 0.06 0  0.36 0.06 0  0.37 0.06 0  0.38 0.06 0  0.39 0.06 0  0.4 0.06 0  0.41 0.06 0  0.42 0.06 0  0.43 0.06 0  0.44 0.06 0  0.45 0.06 0  0.46 0.06 0  0.47 0.06 0  0.48 0.06 0  0.49 0.06 0  0.5 0.06 0  0.51 0.06 0  0.52 0.06 0  0.53 0.06 0  0.54 0.06 0  0.55 0.06 0  0.5600000000000001 0.06 0  0.57 0.06 0  0.58 0.06 0  0.59 0.06 0  0.6 0.06 0  0.61 0.06 0  0.62 0.06 0  0.63 0.06 0  0.64 0.06 0  0.65 0.06 0  0.66 0.06 0  0.67 0.06 0  0.68 0.06 0  0.6899999999999999 0.06 0  0.7 0.06 0  0.71 0.06 0  0.72 0.06 0  0.73 0.06 0  0.74 0.06 0  0.75 0.06 0  0.76 0.06 0  0.77 0.06 0  0.78 0.06 0  0.79 0.06 0  0.8 0.06 0  0.8100000000000001 0.06 0  0.82 0.06 0  0.83 0.06 0  0.84 0.06 0  0.85 0.06 0  0.86 0.06 0  0.87 0.06 0  0.88 0.06 0  0.89 0.06 0  0.9 0.06 0  0.91 0.06 0  0.92 0.06 0  0.93 0.06 0  0.9399999999999999 0.06 0  0.95 0.06 0  0.96 0.06 0  0.97 0.06 0  0.98 0.06 0  0.99 0.06 0  1 0.06 0  0 0.07000000000000001 0  0.01 0.07000000000000001 0  0.02 0.07000000000000001 0  0.03 0.07000000000000001 0  0.04 0.07000000000000001 0  0.05 0.07000000000000001 0  0.06 0.07000000000000001 0  0.07000000000000001 0.07000000000000001 0  0.08 0.07000000000000001 0  0.09 0.07000000000000001 0  0.1 0.07000000000000001 0  0.11 0.07000000000000001 0  0.12 0.07000000000000001 0  0.13 0.07000000000000001 0  0.14 0.07000000000000001 0  0.15 0.07000000000000001 0  0.16 0.07000000000000001 0  0.17 0.0700
[...]
<PointData  Scalars="f_17"> 
<DataArray  type="Float64"  Name="f_17"  format="ascii">0.0000000000000000e+00  5.0000000000000000e+01  5.0000000000000000e+01  5.0000000000000000e+01  5.0000000000000000e+01  5.0000000000000000e+01  5.0000000000000000e+01  5.0000000000000000e+01  5.0000000000000000e+01  5.0000000000000000e+01  5.0000000000000000e+01  5.0000000000000000e+01  5.0000000000000000e+01  5.0000000000000000e+01  5.0000000000000000e+01  5.0000000000000000e+01  5.0000000000000000e+01  5.0000000000000000e+01  5.0000000000000000e+01  5.0000000000000000e+01  5.0000000000000000e+01  5.0000000000000000e+01  5.0000000000000000e+01  5.0000000000000000e+01  5.0000000000000000e+01  5.0000000000000000e+01  5.0000000000000000e+01  5.0000000000000000e+01  5.0000000000000000e+01  5.0000000000000000e+01  5.0000000000000000e+01  5.0000000000000000e+01  5.0000000000000000e+01  5.0000000000000000e+01  5.0000000000000000e+01  5.0000000000000000e+01  5.0000000000000000e+01  5.0000000000000000e+01  5.0000000000000000e+01  5.0000000000000000e+01  5.0000000000000000e+01  5.0000000000000000e+01  5.0000000000000000e+01  5.0000000000000000e+01  5.0000000000000000e+01  5.0000000000000000e+01  5.0000000000000000e+01  5.0000000000000000e+01  5.0000000000000000e+01  5.0000000000000000e+01  5.0000000000000000e+01  5.0000000000000000e+01  5.0000000000000000e+01  5.0000000000000000e+01  5.0000000000000000e+01  5.0000000000000000e+01  5.0000000000000000e+01  5.0000000000000000e+01  5.0000000000000000e+01  5.0000000000000000e+01  5.0000000000000000e+01  5.0000000000000000e+01  5.0000000000000000e+01  5.0000000000000000e+01  5.0000000000000000e+01  5.0000000000000000e+01  5.0000000000000000e+01  5.0000000000000000e+01  5.0000000000000000e+01  5.0000000000000000e+01  5.0000000000000000e+01  5.0000000000000000e+01  5.0000000000000000e+01  5.0000000000000000e+01  5.0000000000000000e+01  5.0000000000000000e+01  5.0000000000000000e+01  5.0000000000000000e+01  5.0000000000000000e+01  5.0000000000000000e+01  5.0000000000000000e+01  5.0000000000000000e+01  5.0000000000000000e+01  5.0000000000000000e+01  5.0000000000000000e+01  5.0000000000000000e+01  5.0000000000000000e+01  5.0000000000000000e+01  5.0000000000000000e+01  5.0000000000000000e+01  5.0000000000000000e+01  5.0000000000000000e+01  5.0000000000000000e+01  5.0000000000000000e+01  5.0000000000000000e+01  5.0000000000000000e+01  5.0000000000000000e+01  5.0000000000000000e+01  5.0000000000000000e+01  5.0000000000000000e+01  0.0000000000000000e+00  0.0000000000000000e+00  2.4960443321570295e+01  3.5174573350350251e+01  3.9641884747654188e+01  4.2044861666530700e+01  4.3520099803747470e+01  4.4507629041387375e+01  4.5209181078541157e+01  4.5729349755159085e+01  4.6127538919339301e+01  4.6439915421622317e+01  4.6689733719178030e+01  4.6892617142607051e+01  4.7059447674071265e+01  4.7198036788429341e+01  4.7314136909284464e+01  4.7412077939858371e+01  4.7495181391229707e+01  4.7566037690820536e+01  4.7626696614920903e+01  4.7678801005661498e+01  4.7723682542535087e+01  4.7762431565824627e+01  4.7795948805164997e+01  4.7824984264904124e+01  4.7850166846623750e+01  4.7872027192841685e+01  4.7891015502963789e+01  4.7907515573965398e+01  4.7921855973699294e+01  4.7934319013065753e+01  4.7945148011505616e+01  4.7954553226645245e+01  4.7962716728904361e+01  4.7969796435625589e+01  4.7975929470032533e+01  4.7981234973362483e+01  4.7985816470534786e+01  4.7989763868352874e+01  4.7993155148791672e+01  4.7996057807172392e+01  4.7998530075054497e+01  4.8000621959828955e+01  4.8002376126764688e+01  4.8003828644272907e+01  4.8005009609128827e+01  4.8005943665101086e+01  4.8006650425725717e+01  4.8007144809689287e+01  4.8007437295343749e+01  4.8007534099193215e+01  4.8007437281685164e+01  4.8007144782260433e+01  4.8006650384304052e+01  4.8005943609354475e+01  4.8005009538617493e+01  4.8003828558451872e+01  4.8002376024987576e+01  4.8000621841352093e+01  4.7998529939041575e+01  4.7996057652700507e+01  4.7993154974857795e+01  4.7989763673881384e+01  4.7985816254385817e+01  4.7981234734340994e+01  4.7975929206898833e+01  4.7969796147106393e+01  4.7962716413704548e+01  4.7954552883460593e+01  4.7945147639036513e+01  4.7934318610031404e+01  4.7921855538852235e+01  4.7907515106106921e+01  4.7891015000959257e+01  4.7872026655636191e+01  4.7850166273257514e+01  4.7824983654527806e+01  4.7795948157053907e+01  4.7762430879393051e+01  4.7723681817348584e+01  4.7678800241448329e+01  4.7626695811581918e+01  4.7566036848436738e+01  4.7495180510067570e+01  4.7412077020372863e+01  4.7314135952118804e+01  4.7198035794411261e+01  4.7059446644205892e+01  4.6892616078064741e+01  4.6689732621277109e+01  4.6439914291805458e+01  4.6127537759140097e+01  4.5729348566156354e+01  4.5209179862290604e+01  4.4507627799310235e+01  4.3520098536919974e+01  4.2044860375198503e+01  3.9641883429809418e+01  3.5174571996332176e+01  2.4960441887604553e+01  0.0000000000000000e+00  0.0000000000000000e+00  1.4667397904519673e+01  2.4842169788791900e+01  3.1048463814874800e+01  3.4927503512741680e+01  3.7495569380903333e+01  3.9288170768370442e+01  4.0594275008897412e+01  4.1578639795018063e+01  4.2340599048105787e+01  4.2943091154885032e+01  4.3427730167025082e+01  4.3823047819254782e+01  4.4149222075514224e+01  4.4420908066240344e+01  4.4648997685884019e+01  4.4841749902897426e+01  4.5005538204684392e+01  4.5145357714928373e+01  4.5265177203568172e+01  4.5368188473698375e+01  4.5456986320780821e+01  4.5533700569450019e+01  4.5600094425427208e+01  4.5657638755853043e+01  4.5707568906439953e+01  4.5750928673202665e+01  4.5788604704288161e+01  4.5821353687580213e+01  4.5849824039856877e+01  4.5874573361935397e+01  4.5896082601770793e+01  4.5914767634332783e+01  4.5930988796635674e+01  4.5945058790392878e+01  4.5957249270860146e+01  4.5967796369748996e+01  4.5976905346433583e+01  4.5984754520604021e+01  4.5991498607842445e+01  4.5997271554973281e+01  4.6002188952763071e+01  4.6006350088333349e+01  4.6009839687557523e+01  4.6012729388022002e+01  4.6015078975288517e+01  4.6016937408789140e+01  4.6018343658386847e+01  4.6019327368190226e+01  4.6019909360417223e+01  4.6020101988801436e+01  4.6019909348083189e+01  4.6019327343419107e+01  4.6018343620973120e+01  4.6016937358426070e+01  4.6015078911569972e+01  4.6012729310444890e+01  4.6009839595524838e+01  4.6006349981158401e+01  4.6002188829673635e+01  4.5997271415116970e+01  4.5991498450292987e+01  4.5984754344368163e+01  4.5976905150458570e+01  4.5967796152931307e+01  4.5957249032054811e+01  4.5945058528423758e+01  4.5930988510306342e+01  4.5914767322438202e+01  4.5896082263109570e+01  4.5874572995322964e+01  4.5849823644138425e+01  4.5821353261644411e+01  4.5788604247081132e+01  4.5750928183741394e+01  4.5707568383825809e+01  4.5657638199284442e+01  4.5600093834212132e+01  4.5533699943016750e+01  4.5456985658687820e+01  4.5368187775642014e+01  4.5265176469388983e+01  4.5145356944614598e+01  4.5005537398372560e+01  4.4841749060869951e+01  4.4648996808563027e+01  4.4420907154177236e+01  4.4149221129373664e+01  4.3823046839793093e+01  4.3427729155061023e+01  4.2943090111260737e+01  4.2340597973634424e+01  4.1578638690411935e+01  4.0594273874664772e+01  3.9288169604656765e+01  3.7495568187226830e+01  3.4927502287516887e+01  3.1048462554560750e+01  2.4842168487092216e+01  1.4667396560481032e+01  0.0000000000000000e+00  0.0000000000000000e+00  1.0121568603733186e+01  1.8479037954551600e+01  2.4646369229227531e+01  2.9046222334676006e+01  3.2210723588717109e+01  3.4538483624430334e+01  3.6293676681449575e+01  3.7647717746392487e+01  3.8713205407404757e+01  3.9565843502330843e+01  4.0257863705723736e+01  4.0826223855332017e+01  4.1297694011713695e+01  4.1692081792483997e+01  4.2024326561566838e+01  4.2305891111800776e+01  4.2545707071498484e+01  4.2750830432581651e+01  4.2926904758773198e+01  4.3078494242711344e+01  4.3209327045698302e+01  4.3322475728019192e+01  4.3420492866040128e+01  4.3505514277696747e+01  4.3579338516402849e+01  4.3643488758715982e+01  4.3699261476737668e+01  4.3747765082379232e+01  4.3789950883765158e+01  4.3826638090813510e+01  4.3858534172290909e+01  4.3886251549875631e+01  4.3910321381580481e+01  4.3931205013570995e+01  4.3949303549423355e+01  4.3964965887528599e+01  4.3978495502357489e+01  4.3990156187661469e+01  4.4000176935056977e+01  4.4008756086633504e+01  4.4016064872882971e+01  4.4022250425612320e+01  4.4027438338253582e+01  4.4031734832120740e+01  4.4035228575925082e+01  4.4037992196651601e+01  4.4040083512268758e+01  4.4041546510329404e+01  4.4042412091036617e+01  4.4042698588562061e+01  4.4042412080126084e+01  4.4041546488412614e+01  4.4040083479154895e+01  4.4037992152055814e+01  4.4035228519470067e+01  4.4031734763339081e+01  4.4027438256590521e+01  4.4022250330429330e+01  4.4016064763461841e+01  4.4008755962181340e+01  4.4000176794711535e+01  4.3990156030497580e+01  4.3978495327394214e+01  4.3964965693736993e+01  4.3949303335735181e+01  4.3931204778887995e+01  4.3910321124784460e+01  4.3886251269839278e+01  4.3858533867888838e+01  4.3826637760934439e+01  4.3789950527323576e+01  4.3747764698327899e+01  4.3699261064079963e+01  4.3643488316517868e+01  4.3579338043804647e+01  4.3505513773924264e+01  4.3420492330414582e+01  4.3322475159965997e+01  4.3209326444754318e+01  4.3078493608529861e+01  4.2926904091127092e+01  4.2750829731363162e+01  4.2545706336716030e+01  4.2305890343571946e+01  4.2024325760107018e+01  4.1692080958089605e+01  4.1297693144739711e+01  4.0826222956162120e+01  4.0257862774731400e+01  3.9565842539829013e+01  3.8713204413580911e+01  3.7647716721222494e+01  3.6293675624582207e+01  3.4538482535028841e+01  3.2210722465242341e+01  2.9046221174619241e+01  2.4646368028944334e+01  1.8479036709896228e+01  1.0121567312176529e+01  0.0000000000000000e+00  0.0000000000000000e+00  7.6406661475562370e+00  1.4444343654972702e+01  2.0013523840170912e+01  2.4374999765730610e+01  2.7742628377032297e+01  3.0349769478650057e+01  3.2388843709278447e+01  3.4004046580978020e+01  3.5300044129320511e+01  3.6352434171493158e+01  3.7216206851851219e+01  3.7931858030642971e+01  3.8529639342553857e+01  3.9032484010290020e+01  3.9458027348553365e+01  3.9820015027972225e+01  4.0129296508024787e+01  4.0394535121864465e+01  4.0622722476315786e+01  4.0819556032332429e+01  4.0989719797644149e+01  4.1137095535836295e+01  4.1264923528685181e+01  4.1375926278169189e+01  4.1472404674330484e+01  4.1556313486674433e+01  4.1629321170540017e+01  4.1692857659802669e+01  4.1748152873282720e+01  4.1796267980080195e+01  4.1838120971169204e+01  4.1874507717715836e+01  4.1906119423810196e+01  4.1933557176736606e+01  4.1957344143240235e+01  4.1977935842399241e+01  4.1995728835244542e+01  4.2011068101324696e+01  4.2024253317962206e+01  4.2035544215267265e+01  4.2045165146292632e+01  4.2053308984949865e+01  4.2060140442884510e+01  4.2065798879226342e+01  4.2070400663069641e+01  4.2074041136983773e+01  4.2076796220243601e+01  4.2078723682372264e+01  4.2079864110640806e+01  4.2080241589095678e+01  4.2079864101240410e+01  4.2078723663481995e+01  4.2076796191684878e+01  4.2074041098489921e+01  4.2070400614287202e+01  4.2065798819717351e+01  4.2060140372128963e+01  4.2053308902348704e+01  4.2045165051171480e+01  4.2035544106881019e+01  4.2024253195499696e+01  4.2011067963914684e+01  4.1995728681962184e+01  4.1977935672273325e+01  4.1957343955260967e+01  4.1933556969864270e+01  4.1906119196984321e+01  4.1874507469865350e+01  4.1838120701222806e+01  4.1796267686977025e+01  4.1748152555983609e+01  4.1692857317301559e+01  4.1629320801874762e+01  4.1556313090937962e+01  4.1472404250681272e+01  4.1375925825840802e+01  4.1264923046994632e+01  4.1137095024191240e+01  4.0989719255547925e+01  4.0819555459387168e+01  4.0622721872222741e+01  4.0394534486421186e+01  4.0129295841118612e+01  3.9820014329569730e+01  3.9458026618684762e+01  3.9032483249027742e+01  3.8529638549984568e+01  3.7931857206831907e+01  3.7216205996796447e+01  3.6352433285068528e+01  3.5300043211203779e+01  3.4004045630560846e+01  3.2388842725553054e+01  3.0349768460070752e+01  2.7742627321356093e+01  2.4374998669872127e+01  2.0013522700169553e+01  1.4444342466181617e+01  7.6406649046692303e+00  0.0000000000000000e+00  0.0000000000000000e+00  6.0882852340829947e+00  1.1722186706552872e+01  1.6618370592050585e+01  2.0700735621335696e+01  2.4030753944495096e+01  2.6725378396606839e+01  2.8906657052596106e+01  3.0680903049528286e+01  3.2133936395290583e+01  3.3332788587317026e+01  3.4329190735642932e+01  3.5163018506474231e+01  3.5865147675262250e+01  3.6459663469167815e+01  3.6965520106524245e+01  3.7397773309474886e+01  3.7768493926889249e+01  3.8087447355670875e+01  3.8362601860596179e+01  3.8600511776664483e+01  3.8806608816617334e+01  3.8985425454431315e+01  3.9140767728614861e+01  3.9275850079400385e+01  3.9393401454156944e+01  3.9495749490466387e+01  3.9584887836562508e+01  3.9662530397794193e+01  3.9730155367806937e+01  3.9789041217637042e+01  3.9840296306819255e+01  3.9884883399706304e+01  3.9923640083130820e+01  3.9957295863649207e+01  3.9986486556081964e+01  4.0011766446945160e+01  4.0033618617156698e+01  4.0052463731085169e+01  4.0068667538386386e+01  4.0082547287238640e+01  4.0094377209612453e+01  4.0104393208863598e+01  4.0112796855520997e+01  4.0119758777349560e+01  4.0125421513587504e+01  4.0129901889903842e+01  4.0133292959471980e+01  4.0135665546117814e+01  4.0137069417382122e+01  4.0137534108208662e+01  4.0137069409566585e+01  4.0135665530402179e+01  4.0133292935687429e+01  4.0129901857798146e+01  4.0125421472826218e+01  4.0119758727518231e+01  4.0112796796126560e+01  4.0104393139337638e+01  4.0094377129314381e+01  4.0082547195459469e+01  4.0068667434353394e+01  4.0052463613966800e+01  4.0033618486068775e+01  4.0011766300957319e+01  3.9986486394224897e+01  3.9957295684922684e+01  3.9923639886512184e+01  3.9884883184159840e+01  3.9840296071305936e+01  3.9789040961124563e+01  3.9730155089280309e+01  3.9662530096266231e+01  3.9584887511084041e+01  3.9495749140136596e+01  3.9393401078132861e+01  3.9275849676905402e+01  3.9140767298946287e+01  3.8985424996966202e+01  3.8806608330816218e+01  3.8600511262072899e+01  3.8362601316843239e+01  3.8087446782464447e+01  3.7768493324007203e+01  3.7397772676751792e+01  3.6965519443832775e+01  3.6459662776394211e+01  3.5865146952274507e+01  3.5163017753082535e+01  3.4329189951550255e+01  3.3332787772058623e+01  3.2133935548160579e+01  3.0680902169490835e+01  2.8906656138180466e+01  2.6725377445787561e+01  2.4030752954565230e+01  2.0700734588792201e+01  1.6618369512512484e+01  1.1722185574673048e+01  6.0882840432409022e+00  0.0000000000000000e+00  0.0000000000000000e+00  5.0245804552244477e+00  9.7774262389238267e+00  1.4062850395945057e+01  1.7790803305681759e+01  2.0959060478912654e+01  2.3617011422523181e+01  2.5834567883473689e+01  2.7683339938662851e+01  2.9227884694617014e+01  3.0522915995747756e+01  3.1613388387140866e+01  3.2535699004082453e+01  3.3319156114460270e+01  3.3987357584835273e+01  3.4559361168968174e+01  3.5050632184547013e+01  3.5473793138445792e+01  3.5839210189992102e+01  3.6155450143790496e+01  3.6429636630107346e+01  3.6667728482209831e+01  3.6874738253447468e+01  3.7054904659026995e+01  3.7211829459918548e+01  3.7348586795706282e+01  3.7467811066283140e+01  3.7571768021423416e+01  3.7662412629985631e+01  3.7741436479099505e+01  3.7810306831483295e+01  3.7870298995957725e+01  3.7922523304961331e+01  3.7967947715682776e+01  3.8007416837682023e+01  3.8041668024207503e+01  3.8071345035350774e+01  3.8097009680104399e+01  3.8119151764820842e+01  3.8138197612598653e+01  3.8154517368022944e+01  3.8168431261600979e+01  3.8180214975974380e+01  3.8190104229863749e+01  3.8198298674388823e+01  3.8204965178887988e+01  3.8210240568818250e+01  3.8214233866112721e+01  3.8217028071994164e+01  3.8218681523269119e+01  3.8219228845222474e+01  3.8218681517101288e+01  3.8217028059577615e+01  3.8214233847286017e+01  3.8210240543340113e+01  3.8204965146438312e+01  3.8198298634570065e+01  3.8190104182202766e+01  3.8180214919924822e+01  3.8168431196546059e+01  3.8154517293278815e+01  3.8138197527418278e+01  3.8119151668398864e+01  3.8097009571582277e+01  3.8071344913822792e+01  3.8041667888727559e+01  3.8007416687270926e+01  3.7967947549336436e+01  3.7922523121659466e+01  3.7870298794672891e+01  3.7810306611190974e+01  3.7741436238787792e+01  3.7662412368665386e+01  3.7571767738138320e+01  3.7467810760119292e+01  3.7348586465801404e+01  3.7211829105469953e+01  3.7054904279298661e+01  3.6874737847775187e+01  3.6667728050004271e+01  3.6429636170854764e+01  3.6155449657050205e+01  3.5839209675390578e+01  3.5473792595666474e+01  3.5050631613315410e+01  3.4559360569031547e+01  3.3987356955936150e+01  3.3319155456302710e+01  3.2535698316290535e+01  3.1613387669207867e+01  3.0522915246975280e+01  2.9227883914042728e+01  2.7683339124976026e+01  2.5834567034919019e+01  2.3617010536794318e+01  2.0959059553040646e+01  1.7790802335923360e+01  1.4062849377666682e+01  9.7774251664474647e+00  5.0245793215649179e+00  0.0000000000000000e+00  0.0000000000000000e+00  4.2479973235839550e+00  8.3214488892160556e+00  1.2083318840650431e+01  1.5453486521721372e+01  1.8406376983935576e+01  2.0955804430454869e+01  2.3137780315321422e+01  2.4997207375099251e+01  2.6579653883545525e+01  2.7927151827676411e+01  2.9076545147398612e+01  3.0059229489207883e+01  3.0901549336673440e+01  3.1625442714541212e+01  3.2249126816138720e+01  3.2787732001435621e+01  3.3253850855819771e+01  3.3657997475285917e+01  3.4008984418040285e+01  3.4314228965828946e+01  3.4580000780193245e+01  3.4811621909746826e+01  3.5013628468627793e+01  3.5189901648428311e+01  3.5343774242611843e+01  3.5478117612369211e+01  3.5595413003109215e+01  3.5697810304240477e+01  3.5787176698017284e+01  3.5865137133689373e+01  3.5933108162906890e+01  3.5992326358028123e+01  3.6043872287976882e+01  3.6088690831819576e+01  3.6127608456723273e+01  3.6161347965412425e+01  3.6190541121681463e+01  3.6215739485519464e+01  3.6237423727756699e+01  3.6256011644574528e+01  3.6271865052181255e+01  3.6285295709445748e+01  3.6296570389738001e+01  3.6305915201406243e+01  3.6313519238256688e+01  3.6319537626304466e+01  3.6324094020316245e+01  3.6327282592755907e+01  3.6329169548263728e+01  3.6329794188401493e+01  3.6329169543794876e+01  3.6327282583739958e+01  3.6324094006596845e+01  3.6319537607647824e+01  3.6313519214352276e+01  3.6305915171867902e+01  3.6296570354105363e+01  3.6285295667186418e+01  3.6271865002692849e+01  3.6256011587187686e+01  3.6237423661738426e+01  3.6215739410077383e+01  3.6190541035968472e+01  3.6161347868532289e+01  3.6127608347736711e+01  3.6088690709751297e+01  3.6043872151823209e+01  3.5992326206765377e+01  3.5933107995500229e+01  3.5865136949102428e+01  3.5787176495221829e+01  3.5697810082226411e+01  3.5595412760894440e+01  3.5478117349009374e+01  3.5343773957209336e+01  3.5189901340140366e+01  3.5013628136673432e+01  3.4811621553412117e+01  3.4580000398834201e+01  3.4314228558872031e+01  3.4008983984979842e+01  3.3657997015677658e+01  3.3253850369270303e+01  3.2787731487586981e+01  3.2249126274647452e+01  3.1625442145051238e+01  3.0901548738781990e+01  3.0059228862423648e+01  2.9076544491091553e+01  2.7927151141018378e+01  2.6579653165441194e+01  2.4997206624107125e+01  2.3137779529565798e+01  2.0955803607529809e+01  1.8406376120803138e+01  1.5453485614604695e+01  1.2083317884916413e+01  8.3214478792349080e+00  4.2479962525494690e+00  0.0000000000000000e+00  0.0000000000000000e+00  3.6541107023948380e+00  7.1898339403311677e+00  1.0508865329421576e+01  1.3545260283072194e+01  1.6267225294458385e+01  1.8671144674344792e+01  2.0772548831911916e+01  2.2597628701520744e+01  2.4176899795732385e+01  2.5541167347824096e+01  2.6719303840496931e+01  2.7737239462800630e+01  2.8617676359141232e+01  2.9380191489757049e+01  3.0041521339819841e+01  3.0615910694255540e+01  3.1115463438863436e+01  3.1550465981135734e+01  3.1929671941046770e+01  3.2260546168458184e+01  3.2549470643604401e