<?xml version="1.0"?>
<VTKFile type="UnstructuredGrid"  version="0.1"  >
<UnstructuredGrid>
<Piece  NumberOfPoints="10201" NumberOfCells="20000">
<Points>
<DataArray  type="Float64"  NumberOfComponents="3"  format="ascii">0 0 0  0.01 0 0  0.02 0 0  0.03 0 0  0.04 0 0  0.05 0 0  0.06 0 0  0.07000000000000001 0 0  0.08 0 0  0.09 0 0  0.1 0 0  0.11 0 0  0.12 0 0  0.13 0 0  0.14 0 0  0.15 0 0  0.16 0 0  0.17 0 0  0.18 0 0  0.19 0 0  0.2 0 0  0.21 0 0  0.22 0 0  0.23 0 0  0.24 0 0  0.25 0 0  0.26 0 0  0.27 0 0  0.28 0 0  0.29 0 0  0.3 0 0  0.31 0 0  0.32 0 0  0.33 0 0  0.34 0 0  0.35 0 0  0.36 0 0  0.37 0 0  0.38 0 0  0.39 0 0  0.4 0 0  0.41 0 0  0.42 0 0  0.43 0 0  0.44 0 0  0.45 0 0  0.46 0 0  0.47 0 0  0.48 0 0  0.49 0 0  0.5 0 0  0.51 0 0  0.52 0 0  0.53 0 0  0.54 0 0  0.55 0 0  0.5600000000000001 0 0  0.57 0 0  0.58 0 0  0.59 0 0  0.6 0 0  0.61 0 0  0.62 0 0  0.63 0 0  0.64 0 0  0.65 0 0  0.66 0 0  0.67 0 0  0.68 0 0  0.6899999999999999 0 0  0.7 0 0  0.71 0 0  0.72 0 0  0.73 0 0  0.74 0 0  0.75 0 0  0.76 0 0  0.77 0 0  0.78 0 0  0.79 0 0  0.8 0 0  0.8100000000000001 0 0  0.82 0 0  0.83 0 0  0.84 0 0  0.85 0 0  0.86 0 0  0.87 0 0  0.88 0 0  0.89 0 0  0.9 0 0  0.91 0 0  0.92 0 0  0.93 0 0  0.9399999999999999 0 0  0.95 0 0  0.96 0 0  0.97 0 0  0.98 0 0  0.99 0 0  1 0 0  0 0.01 0  0.01 0.01 0  0.02 0.01 0  0.03 0.01 0  0.04 0.01 0  0.05 0.01 0  0.06 0.01 0  0.07000000000000001 0.01 0  0.08 0.01 0  0.09 0.01 0  0.1 0.01 0  0.11 0.01 0  0.12 0.01 0  0.13 0.01 0  0.14 0.01 0  0.15 0.01 0  0.16 0.01 0  0.17 0.01 0  0.18 0.01 0  0.19 0.01 0  0.2 0.01 0  0.21 0.01 0  0.22 0.01 0  0.23 0.01 0  0.24 0.01 0  0.25 0.01 0  0.26 0.01 0  0.27 0.01 0  0.28 0.01 0  0.29 0.01 0  0.3 0.01 0  0.31 0.01 0  0.32 0.01 0  0.33 0.01 0  0.34 0.01 0  0.35 0.01 0  0.36 0.01 0  0.37 0.01 0  0.38 0.01 0  0.39 0.01 0  0.4 0.01 0  0.41 0.01 0  0.42 0.01 0  0.43 0.01 0  0.44 0.01 0  0.45 0.01 0  0.46 0.01 0  0.47 0.01 0  0.48 0.01 0  0.49 0.01 0  0.5 0.01 0  0.51 0.01 0  0.52 0.01 0  0.53 0.01 0  0.54 0.01 0  0.55 0.01 0  0.5600000000000001 0.01 0  0.57 0.01 0  0.58 0.01 0  0.59 0.01 0  0.6 0.01 0  0.61 0.01 0  0.62 0.01 0  0.63 0.01 0  0.64 0.01 0  0.65 0.01 0  0.66 0.01 0  0.67 0.01 0  0.68 0.01 0  0.6899999999999999 0.01 0  0.7 0.01 0  0.71 0.01 0  0.72 0.01 0  0.73 0.01 0  0.74 0.01 0  0.75 0.01 0  0.76 0.01 0  0.77 0.01 0  0.78 0.01 0  0.79 0.01 0  0.8 0.01 0  0.8100000000000001 0.01 0  0.82 0.01 0  0.83 0.01 0  0.84 0.01 0  0.85 0.01 0  0.86 0.01 0  0.87 0.01 0  0.88 0.01 0  0.89 0.01 0  0.9 0.01 0  0.91 0.01 0  0.92 0.01 0  0.93 0.01 0  0.9399999999999999 0.01 0  0.95 0.01 0  0.96 0.01 0  0.97 0.01 0  0.98 0.01 0  0.99 0.01 0  1 0.01 0  0 0.02 0  0.01 0.02 0  0.02 0.02 0  0.03 0.02 0  0.04 0.02 0  0.05 0.02 0  0.06 0.02 0  0.07000000000000001 0.02 0  0.08 0.02 0  0.09 0.02 0  0.1 0.02 0  0.11 0.02 0  0.12 0.02 0  0.13 0.02 0  0.14 0.02 0  0.15 0.02 0  0.16 0.02 0  0.17 0.02 0  0.18 0.02 0  0.19 0.02 0  0.2 0.02 0  0.21 0.02 0  0.22 0.02 0  0.23 0.02 0  0.24 0.02 0  0.25 0.02 0  0.26 0.02 0  0.27 0.02 0  0.28 0.02 0  0.29 0.02 0  0.3 0.02 0  0.31 0.02 0  0.32 0.02 0  0.33 0.02 0  0.34 0.02 0  0.35 0.02 0  0.36 0.02 0  0.37 0.02 0  0.38 0.02 0  0.39 0.02 0  0.4 0.02 0  0.41 0.02 0  0.42 0.02 0  0.43 0.02 0  0.44 0.02 0  0.45 0.02 0  0.46 0.02 0  0.47 0.02 0  0.48 0.02 0  0.49 0.02 0  0.5 0.02 0  0.51 0.02 0  0.52 0.02 0  0.53 0.02 0  0.54 0.02 0  0.55 0.02 0  0.5600000000000001 0.02 0  0.57 0.02 0  0.58 0.02 0  0.59 0.02 0  0.6 0.02 0  0.61 0.02 0  0.62 0.02 0  0.63 0.02 0  0.64 0.02 0  0.65 0.02 0  0.66 0.02 0  0.67 0.02 0  0.68 0.02 0  0.6899999999999999 0.02 0  0.7 0.02 0  0.71 0.02 0  0.72 0.02 0  0.73 0.02 0  0.74 0.02 0  0.75 0.02 0  0.76 0.02 0  0.77 0.02 0  0.78 0.02 0  0.79 0.02 0  0.8 0.02 0  0.8100000000000001 0.02 0  0.82 0.02 0  0.83 0.02 0  0.84 0.02 0  0.85 0.02 0  0.86 0.02 0  0.87 0.02 0  0.88 0.02 0  0.89 0.02 0  0.9 0.02 0  0.91 0.02 0  0.92 0.02 0  0.93 0.02 0  0.9399999999999999 0.02 0  0.95 0.02 0  0.96 0.02 0  0.97 0.02 0  0.98 0.02 0  0.99 0.02 0  1 0.02 0  0 0.03 0  0.01 0.03 0  0.02 0.03 0  0.03 0.03 0  0.04 0.03 0  0.05 0.03 0  0.06 0.03 0  0.07000000000000001 0.03 0  0.08 0.03 0  0.09 0.03 0  0.1 0.03 0  0.11 0.03 0  0.12 0.03 0  0.13 0.03 0  0.14 0.03 0  0.15 0.03 0  0.16 0.03 0  0.17 0.03 0  0.18 0.03 0  0.19 0.03 0  0.2 0.03 0  0.21 0.03 0  0.22 0.03 0  0.23 0.03 0  0.24 0.03 0  0.25 0.03 0  0.26 0.03 0  0.27 0.03 0  0.28 0.03 0  0.29 0.03 0  0.3 0.03 0  0.31 0.03 0  0.32 0.03 0  0.33 0.03 0  0.34 0.03 0  0.35 0.03 0  0.36 0.03 0  0.37 0.03 0  0.38 0.03 0  0.39 0.03 0  0.4 0.03 0  0.41 0.03 0  0.42 0.03 0  0.43 0.03 0  0.44 0.03 0  0.45 0.03 0  0.46 0.03 0  0.47 0.03 0  0.48 0.03 0  0.49 0.03 0  0.5 0.03 0  0.51 0.03 0  0.52 0.03 0  0.53 0.03 0  0.54 0.03 0  0.55 0.03 0  0.5600000000000001 0.03 0  0.57 0.03 0  0.58 0.03 0  0.59 0.03 0  0.6 0.03 0  0.61 0.03 0  0.62 0.03 0  0.63 0.03 0  0.64 0.03 0  0.65 0.03 0  0.66 0.03 0  0.67 0.03 0  0.68 0.03 0  0.6899999999999999 0.03 0  0.7 0.03 0  0.71 0.03 0  0.72 0.03 0  0.73 0.03 0  0.74 0.03 0  0.75 0.03 0  0.76 0.03 0  0.77 0.03 0  0.78 0.03 0  0.79 0.03 0  0.8 0.03 0  0.8100000000000001 0.03 0  0.82 0.03 0  0.83 0.03 0  0.84 0.03 0  0.85 0.03 0  0.86 0.03 0  0.87 0.03 0  0.88 0.03 0  0.89 0.03 0  0.9 0.03 0  0.91 0.03 0  0.92 0.03 0  0.93 0.03 0  0.9399999999999999 0.03 0  0.95 0.03 0  0.96 0.03 0  0.97 0.03 0  0.98 0.03 0  0.99 0.03 0  1 0.03 0  0 0.04 0  0.01 0.04 0  0.02 0.04 0  0.03 0.04 0  0.04 0.04 0  0.05 0.04 0  0.06 0.04 0  0.07000000000000001 0.04 0  0.08 0.04 0  0.09 0.04 0  0.1 0.04 0  0.11 0.04 0  0.12 0.04 0  0.13 0.04 0  0.14 0.04 0  0.15 0.04 0  0.16 0.04 0  0.17 0.04 0  0.18 0.04 0  0.19 0.04 0  0.2 0.04 0  0.21 0.04 0  0.22 0.04 0  0.23 0.04 0  0.24 0.04 0  0.25 0.04 0  0.26 0.04 0  0.27 0.04 0  0.28 0.04 0  0.29 0.04 0  0.3 0.04 0  0.31 0.04 0  0.32 0.04 0  0.33 0.04 0  0.34 0.04 0  0.35 0.04 0  0.36 0.04 0  0.37 0.04 0  0.38 0.04 0  0.39 0.04 0  0.4 0.04 0  0.41 0.04 0  0.42 0.04 0  0.43 0.04 0  0.44 0.04 0  0.45 0.04 0  0.46 0.04 0  0.47 0.04 0  0.48 0.04 0  0.49 0.04 0  0.5 0.04 0  0.51 0.04 0  0.52 0.04 0  0.53 0.04 0  0.54 0.04 0  0.55 0.04 0  0.5600000000000001 0.04 0  0.57 0.04 0  0.58 0.04 0  0.59 0.04 0  0.6 0.04 0  0.61 0.04 0  0.62 0.04 0  0.63 0.04 0  0.64 0.04 0  0.65 0.04 0  0.66 0.04 0  0.67 0.04 0  0.68 0.04 0  0.6899999999999999 0.04 0  0.7 0.04 0  0.71 0.04 0  0.72 0.04 0  0.73 0.04 0  0.74 0.04 0  0.75 0.04 0  0.76 0.04 0  0.77 0.04 0  0.78 0.04 0  0.79 0.04 0  0.8 0.04 0  0.8100000000000001 0.04 0  0.82 0.04 0  0.83 0.04 0  0.84 0.04 0  0.85 0.04 0  0.86 0.04 0  0.87 0.04 0  0.88 0.04 0  0.89 0.04 0  0.9 0.04 0  0.91 0.04 0  0.92 0.04 0  0.93 0.04 0  0.9399999999999999 0.04 0  0.95 0.04 0  0.96 0.04 0  0.97 0.04 0  0.98 0.04 0  0.99 0.04 0  1 0.04 0  0 0.05 0  0.01 0.05 0  0.02 0.05 0  0.03 0.05 0  0.04 0.05 0  0.05 0.05 0  0.06 0.05 0  0.07000000000000001 0.05 0  0.08 0.05 0  0.09 0.05 0  0.1 0.05 0  0.11 0.05 0  0.12 0.05 0  0.13 0.05 0  0.14 0.05 0  0.15 0.05 0  0.16 0.05 0  0.17 0.05 0  0.18 0.05 0  0.19 0.05 0  0.2 0.05 0  0.21 0.05 0  0.22 0.05 0  0.23 0.05 0  0.24 0.05 0  0.25 0.05 0  0.26 0.05 0  0.27 0.05 0  0.28 0.05 0  0.29 0.05 0  0.3 0.05 0  0.31 0.05 0  0.32 0.05 0  0.33 0.05 0  0.34 0.05 0  0.35 0.05 0  0.36 0.05 0  0.37 0.05 0  0.38 0.05 0  0.39 0.05 0  0.4 0.05 0  0.41 0.05 0  0.42 0.05 0  0.43 0.05 0  0.44 0.05 0  0.45 0.05 0  0.46 0.05 0  0.47 0.05 0  0.48 0.05 0  0.49 0.05 0  0.5 0.05 0  0.51 0.05 0  0.52 0.05 0  0.53 0.05 0  0.54 0.05 0  0.55 0.05 0  0.5600000000000001 0.05 0  0.57 0.05 0  0.58 0.05 0  0.59 0.05 0  0.6 0.05 0  0.61 0.05 0  0.62 0.05 0  0.63 0.05 0  0.64 0.05 0  0.65 0.05 0  0.66 0.05 0  0.67 0.05 0  0.68 0.05 0  0.6899999999999999 0.05 0  0.7 0.05 0  0.71 0.05 0  0.72 0.05 0  0.73 0.05 0  0.74 0.05 0  0.75 0.05 0  0.76 0.05 0  0.77 0.05 0  0.78 0.05 0  0.79 0.05 0  0.8 0.05 0  0.8100000000000001 0.05 0  0.82 0.05 0  0.83 0.05 0  0.84 0.05 0  0.85 0.05 0  0.86 0.05 0  0.87 0.05 0  0.88 0.05 0  0.89 0.05 0  0.9 0.05 0  0.91 0.05 0  0.92 0.05 0  0.93 0.05 0  0.9399999999999999 0.05 0  0.95 0.05 0  0.96 0.05 0  0.97 0.05 0  0.98 0.05 0  0.99 0.05 0  1 0.05 0  0 0.06 0  0.01 0.06 0  0.02 0.06 0  0.03 0.06 0  0.04 0.06 0  0.05 0.06 0  0.06 0.06 0  0.07000000000000001 0.06 0  0.08 0.06 0  0.09 0.06 0  0.1 0.06 0  0.11 0.06 0  0.12 0.06 0  0.13 0.06 0  0.14 0.06 0  0.15 0.06 0  0.16 0.06 0  0.17 0.06 0  0.18 0.06 0  0.19 0.06 0  0.2 0.06 0  0.21 0.06 0  0.22 0.06 0  0.23 0.06 0  0.24 0.06 0  0.25 0.06 0  0.26 0.06 0  0.27 0.06 0  0.28 0.06 0  0.29 0.06 0  0.3 0.06 0  0.31 0.06 0  0.32 0.06 0  0.33 0.06 0  0.34 0.06 0  0.35 0.06 0  0.36 0.06 0  0.37 0.06 0  0.38 0.06 0  0.39 0.06 0  0.4 0.06 0  0.41 0.06 0  0.42 0.06 0  0.43 0.06 0  0.44 0.06 0  0.45 0.06 0  0.46 0.06 0  0.47 0.06 0  0.48 0.06 0  0.49 0.06 0  0.5 0.06 0  0.51 0.06 0  0.52 0.06 0  0.53 0.06 0  0.54 0.06 0  0.55 0.06 0  0.5600000000000001 0.06 0  0.57 0.06 0  0.58 0.06 0  0.59 0.06 0  0.6 0.06 0  0.61 0.06 0  0.62 0.06 0  0.63 0.06 0  0.64 0.06 0  0.65 0.06 0  0.66 0.06 0  0.67 0.06 0  0.68 0.06 0  0.6899999999999999 0.06 0  0.7 0.06 0  0.71 0.06 0  0.72 0.06 0  0.73 0.06 0  0.74 0.06 0  0.75 0.06 0  0.76 0.06 0  0.77 0.06 0  0.78 0.06 0  0.79 0.06 0  0.8 0.06 0  0.8100000000000001 0.06 0  0.82 0.06 0  0.83 0.06 0  0.84 0.06 0  0.85 0.06 0  0.86 0.06 0  0.87 0.06 0  0.88 0.06 0  0.89 0.06 0  0.9 0.06 0  0.91 0.06 0  0.92 0.06 0  0.93 0.06 0  0.9399999999999999 0.06 0  0.95 0.06 0  0.96 0.06 0  0.97 0.06 0  0.98 0.06 0  0.99 0.06 0  1 0.06 0  0 0.07000000000000001 0  0.01 0.07000000000000001 0  0.02 0.07000000000000001 0  0.03 0.07000000000000001 0  0.04 0.07000000000000001 0  0.05 0.07000000000000001 0  0.06 0.07000000000000001 0  0.07000000000000001 0.07000000000000001 0  0.08 0.07000000000000001 0  0.09 0.07000000000000001 0  0.1 0.07000000000000001 0  0.11 0.07000000000000001 0  0.12 0.07000000000000001 0  0.13 0.07000000000000001 0  0.14 0.07000000000000001 0  0.15 0.07000000000000001 0  0.16 0.07000000000000001 0  0.17 0.0700
[...]
<PointData  Scalars="f_17"> 
<DataArray  type="Float64"  Name="f_17"  format="ascii">0.0000000000000000e+00  5.0000000000000000e+01  5.0000000000000000e+01  5.0000000000000000e+01  5.0000000000000000e+01  5.0000000000000000e+01  5.0000000000000000e+01  5.0000000000000000e+01  5.0000000000000000e+01  5.0000000000000000e+01  5.0000000000000000e+01  5.0000000000000000e+01  5.0000000000000000e+01  5.0000000000000000e+01  5.0000000000000000e+01  5.0000000000000000e+01  5.0000000000000000e+01  5.0000000000000000e+01  5.0000000000000000e+01  5.0000000000000000e+01  5.0000000000000000e+01  5.0000000000000000e+01  5.0000000000000000e+01  5.0000000000000000e+01  5.0000000000000000e+01  5.0000000000000000e+01  5.0000000000000000e+01  5.0000000000000000e+01  5.0000000000000000e+01  5.0000000000000000e+01  5.0000000000000000e+01  5.0000000000000000e+01  5.0000000000000000e+01  5.0000000000000000e+01  5.0000000000000000e+01  5.0000000000000000e+01  5.0000000000000000e+01  5.0000000000000000e+01  5.0000000000000000e+01  5.0000000000000000e+01  5.0000000000000000e+01  5.0000000000000000e+01  5.0000000000000000e+01  5.0000000000000000e+01  5.0000000000000000e+01  5.0000000000000000e+01  5.0000000000000000e+01  5.0000000000000000e+01  5.0000000000000000e+01  5.0000000000000000e+01  5.0000000000000000e+01  5.0000000000000000e+01  5.0000000000000000e+01  5.0000000000000000e+01  5.0000000000000000e+01  5.0000000000000000e+01  5.0000000000000000e+01  5.0000000000000000e+01  5.0000000000000000e+01  5.0000000000000000e+01  5.0000000000000000e+01  5.0000000000000000e+01  5.0000000000000000e+01  5.0000000000000000e+01  5.0000000000000000e+01  5.0000000000000000e+01  5.0000000000000000e+01  5.0000000000000000e+01  5.0000000000000000e+01  5.0000000000000000e+01  5.0000000000000000e+01  5.0000000000000000e+01  5.0000000000000000e+01  5.0000000000000000e+01  5.0000000000000000e+01  5.0000000000000000e+01  5.0000000000000000e+01  5.0000000000000000e+01  5.0000000000000000e+01  5.0000000000000000e+01  5.0000000000000000e+01  5.0000000000000000e+01  5.0000000000000000e+01  5.0000000000000000e+01  5.0000000000000000e+01  5.0000000000000000e+01  5.0000000000000000e+01  5.0000000000000000e+01  5.0000000000000000e+01  5.0000000000000000e+01  5.0000000000000000e+01  5.0000000000000000e+01  5.0000000000000000e+01  5.0000000000000000e+01  5.0000000000000000e+01  5.0000000000000000e+01  5.0000000000000000e+01  5.0000000000000000e+01  5.0000000000000000e+01  5.0000000000000000e+01  0.0000000000000000e+00  0.0000000000000000e+00  2.4945929609286356e+01  3.5145589091477532e+01  3.9598517210753215e+01  4.1987240717448195e+01  4.3448396721675714e+01  4.4422054956490804e+01  4.5109985063224897e+01  4.5616816599909740e+01  4.6001986627419406e+01  4.6301692460356875e+01  4.6539216068386530e+01  4.6730205182740420e+01  4.6885562957762559e+01  4.7013118739457873e+01  4.7118639492407354e+01  4.7206466343630709e+01  4.7279928763877585e+01  4.7341621966531363e+01  4.7393597464667728e+01  4.7437496942983593e+01  4.7474648210664441e+01  4.7506135228288194e+01  4.7532850057613921e+01  4.7555531981529775e+01  4.7574797370211883e+01  4.7591162773383466e+01  4.7605062985856215e+01  4.7616865335269985e+01  4.7626881096725789e+01  4.7635374697756269e+01  4.7642571205734320e+01  4.7648662466630114e+01  4.7653812174454465e+01  4.7658160084905724e+01  4.7661825537895020e+01  4.7664910417048475e+01  4.7667501646643196e+01  4.7669673305376783e+01  4.7671488420183692e+01  4.7673000490772537e+01  4.7674254785753831e+01  4.7675289443496581e+01  4.7676136404689764e+01  4.7676822198626738e+01  4.7677368601185165e+01  4.7677793179137161e+01  4.7678109732620825e+01  4.7678328645214634e+01  4.7678457148973735e+01  4.7678499509937694e+01  4.7678457137935041e+01  4.7678328622936654e+01  4.7678109698701810e+01  4.7677793132973235e+01  4.7677368541968946e+01  4.7676822125345510e+01  4.7676136316124030e+01  4.7675289338218420e+01  4.7674254662126046e+01  4.7673000346948200e+01  4.7671488254107310e+01  4.7669673114786463e+01  4.7667501429075152e+01  4.7664910169843331e+01  4.7661825258207124e+01  4.7658159769715276e+01  4.7653811820583037e+01  4.7648662070759542e+01  4.7642570764429912e+01  4.7635374207493427e+01  4.7626880553921033e+01  4.7616864736315947e+01  4.7605062327160184e+01  4.7591162051409825e+01  4.7574796581527600e+01  4.7555531122852287e+01  4.7532849125861148e+01  4.7506134220629363e+01  4.7474647124571234e+01  4.7437495776279782e+01  4.7393596215577041e+01  4.7341620633721305e+01  4.7279927346498184e+01  4.7206464841346836e+01  4.7118637905422496e+01  4.7013117068527819e+01  4.6885561204197565e+01  4.6730203348392877e+01  4.6539214155621991e+01  4.6301690472005035e+01  4.6001984566698759e+01  4.5616814470317621e+01  4.5109982868373052e+01  4.4422052699844436e+01  4.3448394406084539e+01  4.1987238344127292e+01  3.9598514776443857e+01  3.5145586578010914e+01  2.4945926933264595e+01  0.0000000000000000e+00  0.0000000000000000e+00  1.4638501207924175e+01  2.4784463044426179e+01  3.0962120710987854e+01  3.4812782568866339e+01  3.7352811564307160e+01  3.9117796379745798e+01  4.0396779882193805e+01  4.1354590870086476e+01  4.2090629383865085e+01  4.2667894458006842e+01  4.3128054916819494e+01  4.3499691073453405e+01  4.3803023043941153e+01  4.4052741539942048e+01  4.4259767408207424e+01  4.4432381966352629e+01  4.4576974553336463e+01  4.4698549826692002e+01  4.4801080020314814e+01  4.4887754639735199e+01  4.4961160782235346e+01  4.5023415578616984e+01  4.5076264985420877e+01  4.5121158532167065e+01  4.5159306623444280e+01  4.5191725005378032e+01  4.5219269664269987e+01  4.5242664505982191e+01  4.5262523525477057e+01  4.5279368725388615e+01  4.5293644720890967e+01  4.5305730735871371e+01  4.5315950525847107e+01  4.5324580638023370e+01  4.5331857325797984e+01  4.5337982365099059e+01  4.5343127966968368e+01  4.5347440940342125e+01  4.5351046227819012e+01  4.5354049913004907e+01  4.5356541779074348e+01  4.5358597483209842e+01  4.5360280399628131e+01  4.5361643174261737e+01  4.5362729026293117e+01  4.5363572825224679e+01  4.5364201966696982e+01  4.5364637065588951e+01  4.5364892480856582e+01  4.5364976682939570e+01  4.5364892471254294e+01  4.5364637046204145e+01  4.5364201937168858e+01  4.5363572785010597e+01  4.5362728974667363e+01  4.5361643110313530e+01  4.5360280322260074e+01  4.5358597391136357e+01  4.5356541670820100e+01  4.5354049786904440e+01  4.5351046082017199e+01  4.5347440772796276e+01  4.5343127775451300e+01  4.5337982147205054e+01  4.5331857078950584e+01  4.5324580359486561e+01  4.5315950212738834e+01  4.5305730385180773e+01  4.5293644329498996e+01  4.5279368290092599e+01  4.5262523043018327e+01  4.5242663973077498e+01  4.5219269077646700e+01  4.5191724361811801e+01  4.5159305919799486e+01  4.5121157765439222e+01  4.5076264152780219e+01  4.5023414677452422e+01  4.4961159810197387e+01  4.4887753594776768e+01  4.4801078900728967e+01  4.4698548631144419e+01  4.4576973280891231e+01  4.4432380616489610e+01  4.4259765980829656e+01  4.4052740035369673e+01  4.3803021462890435e+01  4.3499689416997775e+01  4.3128053186327669e+01  4.2667892655053805e+01  4.2090627510105911e+01  4.1354588927080222e+01  4.0396777871151663e+01  3.9117794301152621e+01  3.7352809417313871e+01  3.4812780350238363e+01  3.0962118413273256e+01  2.4784460654095586e+01  1.4638498720011860e+01  0.0000000000000000e+00  0.0000000000000000e+00  1.0078549699105322e+01  1.8393129436422637e+01  2.4517829614793925e+01  2.8875436401991593e+01  3.1998198833933124e+01  3.4284845626532075e+01  3.5999663446715971e+01  3.7314173119811649e+01  3.8341071651597886e+01  3.9156153155486031e+01  3.9811730838553039e+01  4.0344834853056234e+01  4.0782298010502352e+01  4.1143980900647769e+01  4.1444865994193322e+01  4.1696449363583085e+01  4.1907686246420610e+01  4.2085646841137965e+01  4.2235979883786428e+01  4.2363246163877740e+01  4.2471162401053796e+01  4.2562782277907353e+01  4.2640632712201260e+01  4.2706817777092155e+01  4.2763098916634000e+01  4.2810957569654505e+01  4.2851644581480485e+01  4.2886219580076975e+01  4.2915582647394011e+01  4.2940500014687153e+01  4.2961625077113077e+01  4.2979515707449259e+01  4.2994648616919314e+01  4.3007431339067686e+01  4.3018212283853202e+01  4.3027289211925911e+01  4.3034916405080537e+01  4.3041310752146209e+01  4.3046656925711176e+01  4.3051111790905757e+01  4.3054808160610200e+01  4.3057857990166482e+01  4.3060355087631429e+01  4.3062377401825174e+01  4.3063988939141716e+01  4.3065241350724598e+01  4.3066175223721373e+01  4.3066821103568422e+01  4.3067200268351314e+01  4.3067325271015584e+01  4.3067200260390990e+01  4.3066821087487845e+01  4.3066175199199932e+01  4.3065241317279856e+01  4.3063988896127825e+01  4.3062377348430772e+01  4.3060355022877374e+01  4.3057857912903792e+01  4.3054808069518153e+01  4.3051111684490465e+01  4.3046656802305371e+01  4.3041310609909829e+01  4.3034916242003256e+01  4.3027289025831244e+01  4.3018212072405149e+01  4.3007431099779645e+01  4.2994648347166184e+01  4.2979515404482378e+01  4.2961624738078555e+01  4.2940499636647651e+01  4.2915582227353802e+01  4.2886219115010476e+01  4.2851644068363598e+01  4.2810957005498999e+01  4.2763098298523857e+01  4.2706817102221649e+01  4.2640631977913607e+01  4.2562781481733047e+01  4.2471161540747779e+01  4.2363245237453135e+01  4.2235978889544626e+01  4.2085645777692207e+01  4.1907685112711526e+01  4.1696448158884749e+01  4.1444864718106622e+01  4.1143979553078751e+01  4.0782296591623080e+01  4.0344833363243836e+01  3.9811729278302586e+01  3.9156151525290831e+01  3.8341069951788931e+01  3.7314171350341923e+01  3.5999661606870319e+01  3.4284843714531895e+01  3.1998196846399413e+01  2.8875434333269148e+01  2.4517827456403719e+01  1.8393127177933170e+01  1.0078547331678099e+01  0.0000000000000000e+00  0.0000000000000000e+00  7.5839111347928867e+00  1.4331004365998970e+01  1.9843941238749913e+01  2.4149681343879703e+01  2.7462243484880325e+01  3.0015143212889168e+01  3.2000949455957475e+01  3.3563997327965893e+01  3.4809082681020605e+01  3.5811922412773086e+01  3.6627614219377421e+01  3.7296749357717701e+01  3.7849662248072434e+01  3.8309356003591290e+01  3.8693522819825446e+01  3.9015952288687636e+01  3.9287525037863652e+01  3.9516923168063379e+01  3.9711145138714059e+01  3.9875883952978057e+01  4.0015808558092075e+01  4.0134775848651408e+01  4.0235992292575411e+01  4.0322138549034698e+01  4.0395466587699595e+01  4.0457876150856727e+01  4.0510975534661981e+01  4.0556130346959407e+01  4.0594502956539657e+01  4.0627084668147468e+01  4.0654722161340572e+01  4.0678139366166413e+01  4.0697955677575777e+01  4.0714701207615889e+01  4.0728829621382651e+01  4.0740728986353346e+01  4.0750730975604924e+01  4.0759118696668153e+01  4.0766133364331445e+01  4.0771979993858885e+01  4.0776832258048479e+01  4.0780836625249009e+01  4.0784115874309158e+01  4.0786772065251618e+01  4.0788889030346617e+01  4.0790534438495861e+01  4.0791761475888734e+01  4.0792610177335710e+01  4.0793108435182582e+01  4.0793272705994077e+01  4.0793108429049404e+01  4.0792610164929101e+01  4.0791761456927340e+01  4.0790534412555971e+01  4.0788888996859704e+01  4.0786772023502095e+01  4.0784115823431307e+01  4.0780836564223947e+01  4.0776832185701167e+01  4.0771979908855918e+01  4.0766133265178873e+01  4.0759118581711157e+01  4.0750730843028407e+01  4.0740728834184310e+01  4.0728829447494874e+01  4.0714701009736970e+01  4.0697955453296764e+01  4.0678139112954639e+01  4.0654721876555655e+01  4.0627084349060489e+01  4.0594502600355824e+01  4.0556129950843783e+01  4.0510975095768288e+01  4.0457875666358667e+01  4.0395466054824674e+01  4.0322137965098825e+01  4.0235991655018296e+01  4.0134775155071452e+01  4.0015807806279156e+01  3.9875883140943117e+01  3.9711144264713745e+01  3.9516922230617624e+01  3.9287524035764413e+01  3.9015951220996662e+01  3.8693521685857966e+01  3.8309354802883206e+01  3.7849660980328039e+01  3.7296748022733439e+01  3.6627612816937592e+01  3.5811920942511378e+01  3.4809081142240345e+01  3.3563995719409121e+01  3.2000947775511783e+01  3.0015141457222875e+01  2.7462241649010721e+01  2.4149679420733147e+01  1.9843939218890974e+01  1.4331002237731941e+01  7.5839088839182915e+00  0.0000000000000000e+00  0.0000000000000000e+00  6.0182996236836050e+00  1.1582426106552946e+01  1.6409255294057594e+01  2.0422891191565295e+01  2.3685005469351207e+01  2.6312742952140511e+01  2.8428334515656495e+01  3.0138265392730585e+01  3.1528515629146469e+01  3.2666263530562759e+01  3.3603372808622474e+01  3.4379836752180921e+01  3.5026633218221029e+01  3.5567933623771275e+01  3.6022762343847631e+01  3.6406229285214671e+01  3.6730443763207575e+01  3.7005194356779342e+01  3.7238457826318857e+01  3.7436783060480764e+01  3.7605583255315999e+01  3.7749360276038871e+01  3.7871878524219305e+01  3.7976300903378494e+01  3.8065296096601109e+01  3.8141123945722384e+01  3.8205703973104811e+01  3.8260670817497292e+01  3.8307419427267142e+01  3.8347142170748086e+01  3.8380859516425041e+01  3.8409445556905524e+01  3.8433649365689377e+01  3.8454112959934676e+01  3.8471386477869736e+01  3.8485941053217957e+01  3.8498179771454538e+01  3.8508447016865873e+01  3.8517036460009201e+01  3.8524197888362046e+01  3.8530143045768192e+01  3.8535050616504620e+01  3.8539070465717742e+01  3.8542327228312125e+01  3.8544923322124312e+01  3.8546941447604247e+01  3.8548446624659952e+01  3.8549487807320560e+01  3.8550099108068494e+01  3.8550300655777633e+01  3.8550099103925440e+01  3.8549487798913326e+01  3.8548446611745263e+01  3.8546941429814851e+01  3.8544923298966239e+01  3.8542327199161392e+01  3.8539070429816285e+01  3.8535050572956273e+01  3.8530142993534199e+01  3.8524197826257051e+01  3.8517036386697832e+01  3.8508446930860089e+01  3.8498179671112268e+01  3.8485940936743496e+01  3.8471386343315920e+01  3.8454112805207615e+01  3.8433649188555776e+01  3.8409445355003143e+01  3.8380859287276103e+01  3.8347141911776355e+01  3.8307419135818222e+01  3.8260670490862239e+01  3.8205703608546798e+01  3.8141123540506321e+01  3.8065295648025312e+01  3.7976300408807703e+01  3.7871877981118381e+01  3.7749359682005867e+01  3.7605582608113039e+01  3.7436782358061514e+01  3.7238457066850621e+01  3.7005193538657799e+01  3.6730442885061827e+01  3.6406228345900495e+01  3.6022761342425952e+01  3.5567932559468900e+01  3.5026632090370775e+01  3.4379835560136925e+01  3.3603371551646987e+01  3.2666262207679331e+01  3.1528514238954337e+01  3.0138263933174418e+01  2.8428332983747406e+01  2.6312741343628662e+01  2.3685003778362734e+01  2.0422889410237797e+01  1.6409253412214007e+01  1.1582424111346921e+01  6.0182974988315001e+00  0.0000000000000000e+00  0.0000000000000000e+00  4.9419814760719660e+00  9.6124768800784928e+00  1.3816046471896236e+01  1.7462882795212114e+01  2.0550996739732454e+01  2.3130004311599649e+01  2.5270032921830261e+01  2.7042895688150736e+01  2.8513338539194276e+01  2.9736248540651296e+01  3.0756736705631919e+01  3.1611338972940651e+01  3.2329484085988483e+01  3.2934871644837919e+01  3.3446642227129452e+01  3.3880325136130224e+01  3.4248588324626269e+01  3.4561825368887774e+01  3.4828613165888811e+01  3.5056068990889990e+01  3.5250129901956818e+01  3.5415772410084813e+01  3.5557186175084695e+01  3.5677912219782897e+01  3.5780953644936517e+01  3.5868864921320395e+01  3.5943824395991022e+01  3.6007693564233236e+01  3.6062065839376487e+01  3.6108306932757749e+01  3.6147588485469470e+01  3.6180916234778820e+01  3.6209153723426219e+01  3.6233042348715486e+01  3.6253218384972286e+01  3.6270227486048455e+01  3.6284537075436099e+01  3.6296546953715300e+01  3.6306598391566418e+01  3.6314981927684620e+01  3.6321944051787135e+01  3.6327692921310494e+01  3.6332403234671730e+01  3.6336220362807239e+01  3.6339263823100055e+01  3.6341630164965196e+01  3.6343395323665966e+01  3.6344616487893340e+01  3.6345333516860123e+01  3.6345569933829267e+01  3.6345333514846814e+01  3.6344616483763964e+01  3.6343395317213847e+01  3.6341630155877361e+01  3.6339263810953724e+01  3.6336220347065449e+01  3.6332403214678116e+01  3.6327692896283757e+01  3.6321944020814833e+01  3.6314981889717352e+01  3.6306598345412041e+01  3.6296546898034265e+01  3.6284537008737608e+01  3.6270227406688242e+01  3.6253218291152265e+01  3.6233042238485979e+01  3.6209153594690626e+01  3.6180916085301554e+01  3.6147588312887109e+01  3.6108306734593931e+01  3.6062065613060170e+01  3.6007693307120668e+01  3.5943824105391151e+01  3.5868864594523295e+01  3.5780953279244450e+01  3.5677911812542781e+01  3.5557185723721751e+01  3.5415771912135618e+01  3.5250129355100547e+01  3.5056068392976130e+01  3.4828612514959538e+01  3.4561824663192546e+01  3.4248587562626945e+01  3.3880324316493464e+01  3.3446641348704169e+01  3.2934870706614355e+01  3.2329483087036365e+01  3.1611337912322409e+01  3.0756735582288037e+01  2.9736247353253610e+01  2.8513337285964155e+01  2.7042894366639104e+01  2.5270031528658926e+01  2.3130002842166604e+01  2.0550995187890408e+01  1.7462881152931566e+01  1.3816044728910141e+01  9.6124750234553726e+00  4.9419794895997855e+00  0.0000000000000000e+00  0.0000000000000000e+00  4.1535046271699914e+00  8.1327478530714554e+00  1.1800976369708904e+01  1.5078346411604850e+01  1.7939552166890930e+01  2.0398666827950400e+01  2.2491948455773422e+01  2.4264531968029125e+01  2.5762201570074765e+01  2.7027187351091740e+01  2.8096512206140989e+01  2.9001730547780618e+01  2.9769324677503700e+01  3.0421349015789414e+01  3.0976115537002002e+01  3.1448827847938226e+01  3.1852130586845906e+01  3.2196569291211119e+01  3.2490968153360534e+01  3.2742737283332666e+01  3.2958121538170275e+01  3.3142401846190786e+01  3.3300058318071564e+01  3.3434902778633109e+01  3.3550186870443014e+01  3.3648690631410673e+01  3.3732795430397331e+01  3.3804544330359512e+01  3.3865692304031711e+01  3.3917748220244178e+01  3.3962010121467948e+01  3.3999595001741689e+01  3.4031464050000579e+01  3.4058444132146164e+01  3.4081246134348774e+01  3.4100480671005286e+01  3.4116671566456162e+01  3.4130267444541857e+01  3.4141651700119702e+01  3.4151151078477234e+01  3.4159043049610361e+01  3.4165562132589180e+01  3.4170905299151322e+01  3.4175236564021240e+01  3.4178690851294611e+01  3.4181377210791155e+01  3.4183381444969143e+01  3.4184768195331635e+01  3.4185582526850894e+01  3.4185851039483516e+01  3.4185582527082431e+01  3.4184768195709637e+01  3.4183381445321999e+01  3.4181377210857725e+01  3.4178690850719825e+01  3.4175236562350435e+01  3.4170905295823736e+01  3.4165562126930610e+01  3.4159043040824969e+01  3.4151151065639382e+01  3.4141651682165964e+01  3.4130267420263586e+01  3.4116671534492966e+01  3.4100480629840000e+01  3.4081246082304425e+01  3.4058444067385153e+01  3.4031463970526822e+01  3.3999594905405971e+01  3.3962010005976744e+01  3.3917748083172626e+01  3.3865692142840125e+01  3.3804544142414315e+01  3.3732795212995619e+01  3.3648690381808507e+01  3.3550186585886692e+01  3.3434902456392692e+01  3.3300057955475729e+01  3.3142401440661793e+01  3.2958121087257538e+01  3.2742736784742966e+01  3.2490967604983382e+01  3.2196568691136278e+01  3.1852129933371451e+01  3.1448827139566060e+01  3.0976114772418054e+01  3.0421348193825946e+01  2.9769323797080176e+01  2.9001729607820618e+01  2.8096511205462267e+01  2.7027186288266257e+01  2.5762200443257456e+01  2.4264530774753496e+01  2.2491947192715525e+01  2.0398665490663937e+01  1.7939550749519285e+01  1.5078344906574296e+01  1.1800974767399957e+01  8.1327461414545219e+00  4.1535027913873508e+00  0.0000000000000000e+00  0.0000000000000000e+00  3.5485356656280826e+00  6.9790014770779045e+00  1.0193408442668728e+01  1.3126121156093035e+01  1.5745646638118505e+01  1.8048658403588430e+01  2.0050962248144014e+01  2.1779008394217168e+01  2.3263553508524605e+01  2.4535624080886372e+01  2.5624292481845398e+01  2.6555666255787276e+01  2.7352601521853327e+01  2.8034805304241704e+01  2.8619120025232469e+01  2.9119872368517637e+01  2.9549224458677603e+01  2.9917497930826578e+01  3.0233459517346692e+01  3.0504566181773413e+01  3.0737172327260815e