<?xml version="1.0"?>
<VTKFile type="UnstructuredGrid"  version="0.1"  >
<UnstructuredGrid>
<Piece  NumberOfPoints="10201" NumberOfCells="20000">
<Points>
<DataArray  type="Float64"  NumberOfComponents="3"  format="ascii">0 0 0  0.01 0 0  0.02 0 0  0.03 0 0  0.04 0 0  0.05 0 0  0.06 0 0  0.07000000000000001 0 0  0.08 0 0  0.09 0 0  0.1 0 0  0.11 0 0  0.12 0 0  0.13 0 0  0.14 0 0  0.15 0 0  0.16 0 0  0.17 0 0  0.18 0 0  0.19 0 0  0.2 0 0  0.21 0 0  0.22 0 0  0.23 0 0  0.24 0 0  0.25 0 0  0.26 0 0  0.27 0 0  0.28 0 0  0.29 0 0  0.3 0 0  0.31 0 0  0.32 0 0  0.33 0 0  0.34 0 0  0.35 0 0  0.36 0 0  0.37 0 0  0.38 0 0  0.39 0 0  0.4 0 0  0.41 0 0  0.42 0 0  0.43 0 0  0.44 0 0  0.45 0 0  0.46 0 0  0.47 0 0  0.48 0 0  0.49 0 0  0.5 0 0  0.51 0 0  0.52 0 0  0.53 0 0  0.54 0 0  0.55 0 0  0.5600000000000001 0 0  0.57 0 0  0.58 0 0  0.59 0 0  0.6 0 0  0.61 0 0  0.62 0 0  0.63 0 0  0.64 0 0  0.65 0 0  0.66 0 0  0.67 0 0  0.68 0 0  0.6899999999999999 0 0  0.7 0 0  0.71 0 0  0.72 0 0  0.73 0 0  0.74 0 0  0.75 0 0  0.76 0 0  0.77 0 0  0.78 0 0  0.79 0 0  0.8 0 0  0.8100000000000001 0 0  0.82 0 0  0.83 0 0  0.84 0 0  0.85 0 0  0.86 0 0  0.87 0 0  0.88 0 0  0.89 0 0  0.9 0 0  0.91 0 0  0.92 0 0  0.93 0 0  0.9399999999999999 0 0  0.95 0 0  0.96 0 0  0.97 0 0  0.98 0 0  0.99 0 0  1 0 0  0 0.01 0  0.01 0.01 0  0.02 0.01 0  0.03 0.01 0  0.04 0.01 0  0.05 0.01 0  0.06 0.01 0  0.07000000000000001 0.01 0  0.08 0.01 0  0.09 0.01 0  0.1 0.01 0  0.11 0.01 0  0.12 0.01 0  0.13 0.01 0  0.14 0.01 0  0.15 0.01 0  0.16 0.01 0  0.17 0.01 0  0.18 0.01 0  0.19 0.01 0  0.2 0.01 0  0.21 0.01 0  0.22 0.01 0  0.23 0.01 0  0.24 0.01 0  0.25 0.01 0  0.26 0.01 0  0.27 0.01 0  0.28 0.01 0  0.29 0.01 0  0.3 0.01 0  0.31 0.01 0  0.32 0.01 0  0.33 0.01 0  0.34 0.01 0  0.35 0.01 0  0.36 0.01 0  0.37 0.01 0  0.38 0.01 0  0.39 0.01 0  0.4 0.01 0  0.41 0.01 0  0.42 0.01 0  0.43 0.01 0  0.44 0.01 0  0.45 0.01 0  0.46 0.01 0  0.47 0.01 0  0.48 0.01 0  0.49 0.01 0  0.5 0.01 0  0.51 0.01 0  0.52 0.01 0  0.53 0.01 0  0.54 0.01 0  0.55 0.01 0  0.5600000000000001 0.01 0  0.57 0.01 0  0.58 0.01 0  0.59 0.01 0  0.6 0.01 0  0.61 0.01 0  0.62 0.01 0  0.63 0.01 0  0.64 0.01 0  0.65 0.01 0  0.66 0.01 0  0.67 0.01 0  0.68 0.01 0  0.6899999999999999 0.01 0  0.7 0.01 0  0.71 0.01 0  0.72 0.01 0  0.73 0.01 0  0.74 0.01 0  0.75 0.01 0  0.76 0.01 0  0.77 0.01 0  0.78 0.01 0  0.79 0.01 0  0.8 0.01 0  0.8100000000000001 0.01 0  0.82 0.01 0  0.83 0.01 0  0.84 0.01 0  0.85 0.01 0  0.86 0.01 0  0.87 0.01 0  0.88 0.01 0  0.89 0.01 0  0.9 0.01 0  0.91 0.01 0  0.92 0.01 0  0.93 0.01 0  0.9399999999999999 0.01 0  0.95 0.01 0  0.96 0.01 0  0.97 0.01 0  0.98 0.01 0  0.99 0.01 0  1 0.01 0  0 0.02 0  0.01 0.02 0  0.02 0.02 0  0.03 0.02 0  0.04 0.02 0  0.05 0.02 0  0.06 0.02 0  0.07000000000000001 0.02 0  0.08 0.02 0  0.09 0.02 0  0.1 0.02 0  0.11 0.02 0  0.12 0.02 0  0.13 0.02 0  0.14 0.02 0  0.15 0.02 0  0.16 0.02 0  0.17 0.02 0  0.18 0.02 0  0.19 0.02 0  0.2 0.02 0  0.21 0.02 0  0.22 0.02 0  0.23 0.02 0  0.24 0.02 0  0.25 0.02 0  0.26 0.02 0  0.27 0.02 0  0.28 0.02 0  0.29 0.02 0  0.3 0.02 0  0.31 0.02 0  0.32 0.02 0  0.33 0.02 0  0.34 0.02 0  0.35 0.02 0  0.36 0.02 0  0.37 0.02 0  0.38 0.02 0  0.39 0.02 0  0.4 0.02 0  0.41 0.02 0  0.42 0.02 0  0.43 0.02 0  0.44 0.02 0  0.45 0.02 0  0.46 0.02 0  0.47 0.02 0  0.48 0.02 0  0.49 0.02 0  0.5 0.02 0  0.51 0.02 0  0.52 0.02 0  0.53 0.02 0  0.54 0.02 0  0.55 0.02 0  0.5600000000000001 0.02 0  0.57 0.02 0  0.58 0.02 0  0.59 0.02 0  0.6 0.02 0  0.61 0.02 0  0.62 0.02 0  0.63 0.02 0  0.64 0.02 0  0.65 0.02 0  0.66 0.02 0  0.67 0.02 0  0.68 0.02 0  0.6899999999999999 0.02 0  0.7 0.02 0  0.71 0.02 0  0.72 0.02 0  0.73 0.02 0  0.74 0.02 0  0.75 0.02 0  0.76 0.02 0  0.77 0.02 0  0.78 0.02 0  0.79 0.02 0  0.8 0.02 0  0.8100000000000001 0.02 0  0.82 0.02 0  0.83 0.02 0  0.84 0.02 0  0.85 0.02 0  0.86 0.02 0  0.87 0.02 0  0.88 0.02 0  0.89 0.02 0  0.9 0.02 0  0.91 0.02 0  0.92 0.02 0  0.93 0.02 0  0.9399999999999999 0.02 0  0.95 0.02 0  0.96 0.02 0  0.97 0.02 0  0.98 0.02 0  0.99 0.02 0  1 0.02 0  0 0.03 0  0.01 0.03 0  0.02 0.03 0  0.03 0.03 0  0.04 0.03 0  0.05 0.03 0  0.06 0.03 0  0.07000000000000001 0.03 0  0.08 0.03 0  0.09 0.03 0  0.1 0.03 0  0.11 0.03 0  0.12 0.03 0  0.13 0.03 0  0.14 0.03 0  0.15 0.03 0  0.16 0.03 0  0.17 0.03 0  0.18 0.03 0  0.19 0.03 0  0.2 0.03 0  0.21 0.03 0  0.22 0.03 0  0.23 0.03 0  0.24 0.03 0  0.25 0.03 0  0.26 0.03 0  0.27 0.03 0  0.28 0.03 0  0.29 0.03 0  0.3 0.03 0  0.31 0.03 0  0.32 0.03 0  0.33 0.03 0  0.34 0.03 0  0.35 0.03 0  0.36 0.03 0  0.37 0.03 0  0.38 0.03 0  0.39 0.03 0  0.4 0.03 0  0.41 0.03 0  0.42 0.03 0  0.43 0.03 0  0.44 0.03 0  0.45 0.03 0  0.46 0.03 0  0.47 0.03 0  0.48 0.03 0  0.49 0.03 0  0.5 0.03 0  0.51 0.03 0  0.52 0.03 0  0.53 0.03 0  0.54 0.03 0  0.55 0.03 0  0.5600000000000001 0.03 0  0.57 0.03 0  0.58 0.03 0  0.59 0.03 0  0.6 0.03 0  0.61 0.03 0  0.62 0.03 0  0.63 0.03 0  0.64 0.03 0  0.65 0.03 0  0.66 0.03 0  0.67 0.03 0  0.68 0.03 0  0.6899999999999999 0.03 0  0.7 0.03 0  0.71 0.03 0  0.72 0.03 0  0.73 0.03 0  0.74 0.03 0  0.75 0.03 0  0.76 0.03 0  0.77 0.03 0  0.78 0.03 0  0.79 0.03 0  0.8 0.03 0  0.8100000000000001 0.03 0  0.82 0.03 0  0.83 0.03 0  0.84 0.03 0  0.85 0.03 0  0.86 0.03 0  0.87 0.03 0  0.88 0.03 0  0.89 0.03 0  0.9 0.03 0  0.91 0.03 0  0.92 0.03 0  0.93 0.03 0  0.9399999999999999 0.03 0  0.95 0.03 0  0.96 0.03 0  0.97 0.03 0  0.98 0.03 0  0.99 0.03 0  1 0.03 0  0 0.04 0  0.01 0.04 0  0.02 0.04 0  0.03 0.04 0  0.04 0.04 0  0.05 0.04 0  0.06 0.04 0  0.07000000000000001 0.04 0  0.08 0.04 0  0.09 0.04 0  0.1 0.04 0  0.11 0.04 0  0.12 0.04 0  0.13 0.04 0  0.14 0.04 0  0.15 0.04 0  0.16 0.04 0  0.17 0.04 0  0.18 0.04 0  0.19 0.04 0  0.2 0.04 0  0.21 0.04 0  0.22 0.04 0  0.23 0.04 0  0.24 0.04 0  0.25 0.04 0  0.26 0.04 0  0.27 0.04 0  0.28 0.04 0  0.29 0.04 0  0.3 0.04 0  0.31 0.04 0  0.32 0.04 0  0.33 0.04 0  0.34 0.04 0  0.35 0.04 0  0.36 0.04 0  0.37 0.04 0  0.38 0.04 0  0.39 0.04 0  0.4 0.04 0  0.41 0.04 0  0.42 0.04 0  0.43 0.04 0  0.44 0.04 0  0.45 0.04 0  0.46 0.04 0  0.47 0.04 0  0.48 0.04 0  0.49 0.04 0  0.5 0.04 0  0.51 0.04 0  0.52 0.04 0  0.53 0.04 0  0.54 0.04 0  0.55 0.04 0  0.5600000000000001 0.04 0  0.57 0.04 0  0.58 0.04 0  0.59 0.04 0  0.6 0.04 0  0.61 0.04 0  0.62 0.04 0  0.63 0.04 0  0.64 0.04 0  0.65 0.04 0  0.66 0.04 0  0.67 0.04 0  0.68 0.04 0  0.6899999999999999 0.04 0  0.7 0.04 0  0.71 0.04 0  0.72 0.04 0  0.73 0.04 0  0.74 0.04 0  0.75 0.04 0  0.76 0.04 0  0.77 0.04 0  0.78 0.04 0  0.79 0.04 0  0.8 0.04 0  0.8100000000000001 0.04 0  0.82 0.04 0  0.83 0.04 0  0.84 0.04 0  0.85 0.04 0  0.86 0.04 0  0.87 0.04 0  0.88 0.04 0  0.89 0.04 0  0.9 0.04 0  0.91 0.04 0  0.92 0.04 0  0.93 0.04 0  0.9399999999999999 0.04 0  0.95 0.04 0  0.96 0.04 0  0.97 0.04 0  0.98 0.04 0  0.99 0.04 0  1 0.04 0  0 0.05 0  0.01 0.05 0  0.02 0.05 0  0.03 0.05 0  0.04 0.05 0  0.05 0.05 0  0.06 0.05 0  0.07000000000000001 0.05 0  0.08 0.05 0  0.09 0.05 0  0.1 0.05 0  0.11 0.05 0  0.12 0.05 0  0.13 0.05 0  0.14 0.05 0  0.15 0.05 0  0.16 0.05 0  0.17 0.05 0  0.18 0.05 0  0.19 0.05 0  0.2 0.05 0  0.21 0.05 0  0.22 0.05 0  0.23 0.05 0  0.24 0.05 0  0.25 0.05 0  0.26 0.05 0  0.27 0.05 0  0.28 0.05 0  0.29 0.05 0  0.3 0.05 0  0.31 0.05 0  0.32 0.05 0  0.33 0.05 0  0.34 0.05 0  0.35 0.05 0  0.36 0.05 0  0.37 0.05 0  0.38 0.05 0  0.39 0.05 0  0.4 0.05 0  0.41 0.05 0  0.42 0.05 0  0.43 0.05 0  0.44 0.05 0  0.45 0.05 0  0.46 0.05 0  0.47 0.05 0  0.48 0.05 0  0.49 0.05 0  0.5 0.05 0  0.51 0.05 0  0.52 0.05 0  0.53 0.05 0  0.54 0.05 0  0.55 0.05 0  0.5600000000000001 0.05 0  0.57 0.05 0  0.58 0.05 0  0.59 0.05 0  0.6 0.05 0  0.61 0.05 0  0.62 0.05 0  0.63 0.05 0  0.64 0.05 0  0.65 0.05 0  0.66 0.05 0  0.67 0.05 0  0.68 0.05 0  0.6899999999999999 0.05 0  0.7 0.05 0  0.71 0.05 0  0.72 0.05 0  0.73 0.05 0  0.74 0.05 0  0.75 0.05 0  0.76 0.05 0  0.77 0.05 0  0.78 0.05 0  0.79 0.05 0  0.8 0.05 0  0.8100000000000001 0.05 0  0.82 0.05 0  0.83 0.05 0  0.84 0.05 0  0.85 0.05 0  0.86 0.05 0  0.87 0.05 0  0.88 0.05 0  0.89 0.05 0  0.9 0.05 0  0.91 0.05 0  0.92 0.05 0  0.93 0.05 0  0.9399999999999999 0.05 0  0.95 0.05 0  0.96 0.05 0  0.97 0.05 0  0.98 0.05 0  0.99 0.05 0  1 0.05 0  0 0.06 0  0.01 0.06 0  0.02 0.06 0  0.03 0.06 0  0.04 0.06 0  0.05 0.06 0  0.06 0.06 0  0.07000000000000001 0.06 0  0.08 0.06 0  0.09 0.06 0  0.1 0.06 0  0.11 0.06 0  0.12 0.06 0  0.13 0.06 0  0.14 0.06 0  0.15 0.06 0  0.16 0.06 0  0.17 0.06 0  0.18 0.06 0  0.19 0.06 0  0.2 0.06 0  0.21 0.06 0  0.22 0.06 0  0.23 0.06 0  0.24 0.06 0  0.25 0.06 0  0.26 0.06 0  0.27 0.06 0  0.28 0.06 0  0.29 0.06 0  0.3 0.06 0  0.31 0.06 0  0.32 0.06 0  0.33 0.06 0  0.34 0.06 0  0.35 0.06 0  0.36 0.06 0  0.37 0.06 0  0.38 0.06 0  0.39 0.06 0  0.4 0.06 0  0.41 0.06 0  0.42 0.06 0  0.43 0.06 0  0.44 0.06 0  0.45 0.06 0  0.46 0.06 0  0.47 0.06 0  0.48 0.06 0  0.49 0.06 0  0.5 0.06 0  0.51 0.06 0  0.52 0.06 0  0.53 0.06 0  0.54 0.06 0  0.55 0.06 0  0.5600000000000001 0.06 0  0.57 0.06 0  0.58 0.06 0  0.59 0.06 0  0.6 0.06 0  0.61 0.06 0  0.62 0.06 0  0.63 0.06 0  0.64 0.06 0  0.65 0.06 0  0.66 0.06 0  0.67 0.06 0  0.68 0.06 0  0.6899999999999999 0.06 0  0.7 0.06 0  0.71 0.06 0  0.72 0.06 0  0.73 0.06 0  0.74 0.06 0  0.75 0.06 0  0.76 0.06 0  0.77 0.06 0  0.78 0.06 0  0.79 0.06 0  0.8 0.06 0  0.8100000000000001 0.06 0  0.82 0.06 0  0.83 0.06 0  0.84 0.06 0  0.85 0.06 0  0.86 0.06 0  0.87 0.06 0  0.88 0.06 0  0.89 0.06 0  0.9 0.06 0  0.91 0.06 0  0.92 0.06 0  0.93 0.06 0  0.9399999999999999 0.06 0  0.95 0.06 0  0.96 0.06 0  0.97 0.06 0  0.98 0.06 0  0.99 0.06 0  1 0.06 0  0 0.07000000000000001 0  0.01 0.07000000000000001 0  0.02 0.07000000000000001 0  0.03 0.07000000000000001 0  0.04 0.07000000000000001 0  0.05 0.07000000000000001 0  0.06 0.07000000000000001 0  0.07000000000000001 0.07000000000000001 0  0.08 0.07000000000000001 0  0.09 0.07000000000000001 0  0.1 0.07000000000000001 0  0.11 0.07000000000000001 0  0.12 0.07000000000000001 0  0.13 0.07000000000000001 0  0.14 0.07000000000000001 0  0.15 0.07000000000000001 0  0.16 0.07000000000000001 0  0.17 0.0700
[...]
<PointData  Scalars="f_17"> 
<DataArray  type="Float64"  Name="f_17"  format="ascii">0.0000000000000000e+00  5.0000000000000000e+01  5.0000000000000000e+01  5.0000000000000000e+01  5.0000000000000000e+01  5.0000000000000000e+01  5.0000000000000000e+01  5.0000000000000000e+01  5.0000000000000000e+01  5.0000000000000000e+01  5.0000000000000000e+01  5.0000000000000000e+01  5.0000000000000000e+01  5.0000000000000000e+01  5.0000000000000000e+01  5.0000000000000000e+01  5.0000000000000000e+01  5.0000000000000000e+01  5.0000000000000000e+01  5.0000000000000000e+01  5.0000000000000000e+01  5.0000000000000000e+01  5.0000000000000000e+01  5.0000000000000000e+01  5.0000000000000000e+01  5.0000000000000000e+01  5.0000000000000000e+01  5.0000000000000000e+01  5.0000000000000000e+01  5.0000000000000000e+01  5.0000000000000000e+01  5.0000000000000000e+01  5.0000000000000000e+01  5.0000000000000000e+01  5.0000000000000000e+01  5.0000000000000000e+01  5.0000000000000000e+01  5.0000000000000000e+01  5.0000000000000000e+01  5.0000000000000000e+01  5.0000000000000000e+01  5.0000000000000000e+01  5.0000000000000000e+01  5.0000000000000000e+01  5.0000000000000000e+01  5.0000000000000000e+01  5.0000000000000000e+01  5.0000000000000000e+01  5.0000000000000000e+01  5.0000000000000000e+01  5.0000000000000000e+01  5.0000000000000000e+01  5.0000000000000000e+01  5.0000000000000000e+01  5.0000000000000000e+01  5.0000000000000000e+01  5.0000000000000000e+01  5.0000000000000000e+01  5.0000000000000000e+01  5.0000000000000000e+01  5.0000000000000000e+01  5.0000000000000000e+01  5.0000000000000000e+01  5.0000000000000000e+01  5.0000000000000000e+01  5.0000000000000000e+01  5.0000000000000000e+01  5.0000000000000000e+01  5.0000000000000000e+01  5.0000000000000000e+01  5.0000000000000000e+01  5.0000000000000000e+01  5.0000000000000000e+01  5.0000000000000000e+01  5.0000000000000000e+01  5.0000000000000000e+01  5.0000000000000000e+01  5.0000000000000000e+01  5.0000000000000000e+01  5.0000000000000000e+01  5.0000000000000000e+01  5.0000000000000000e+01  5.0000000000000000e+01  5.0000000000000000e+01  5.0000000000000000e+01  5.0000000000000000e+01  5.0000000000000000e+01  5.0000000000000000e+01  5.0000000000000000e+01  5.0000000000000000e+01  5.0000000000000000e+01  5.0000000000000000e+01  5.0000000000000000e+01  5.0000000000000000e+01  5.0000000000000000e+01  5.0000000000000000e+01  5.0000000000000000e+01  5.0000000000000000e+01  5.0000000000000000e+01  5.0000000000000000e+01  0.0000000000000000e+00  0.0000000000000000e+00  2.4901970180306805e+01  3.5057886373250440e+01  3.9467506687906798e+01  4.1813566859544117e+01  4.3232902967947147e+01  4.4165770732594979e+01  4.4814110221858172e+01  4.5282703706065526e+01  4.5631121547856409e+01  4.5895673742594035e+01  4.6099733603512028e+01  4.6259018638452339e+01  4.6384480444553340e+01  4.6483976135677267e+01  4.6563280805560218e+01  4.6626725428484377e+01  4.6677612655703506e+01  4.6718496022991580e+01  4.6751372445207707e+01  4.6777818092531838e+01  4.6799086357009195e+01  4.6816179851290485e+01  4.6829904244552296e+01  4.6840909147020881e+01  4.6849719591546624e+01  4.6856760572621624e+01  4.6862376378177636e+01  4.6866845958185458e+01  4.6870395235940549e+01  4.6873207031774555e+01  4.6875429101684524e+01  4.6877180673276428e+01  4.6878557773992526e+01  4.6879637582063566e+01  4.6880481982325229e+01  4.6881140472372230e+01  4.6881652536290993e+01  4.6882049581177945e+01  4.6882356514217086e+01  4.6882593024135971e+01  4.6882774619554802e+01  4.6882913467501247e+01  4.6883019067736612e+01  4.6883098792200833e+01  4.6883158313574974e+01  4.6883201942487915e+01  4.6883232889095304e+01  4.6883253461505241e+01  4.6883265210705616e+01  4.6883269029168730e+01  4.6883265208081511e+01  4.6883253456101713e+01  4.6883232880595457e+01  4.6883201930399927e+01  4.6883158297212752e+01  4.6883098770656993e+01  4.6883019039848492e+01  4.6882913431809307e+01  4.6882774574252878e+01  4.6882592967013487e+01  4.6882356442592922e+01  4.6882049491826479e+01  4.6881652425359448e+01  4.6881140335291867e+01  4.6880481813716436e+01  4.6879637375636854e+01  4.6878557522447984e+01  4.6877180368204691e+01  4.6875428733473470e+01  4.6873206589526056e+01  4.6870394707403051e+01  4.6866845329708610e+01  4.6862375634695802e+01  4.6856759697673432e+01  4.6849718567337334e+01  4.6840907954535119e+01  4.6829902863722921e+01  4.6816178261228487e+01  4.6799084536296753e+01  4.6777816019579816e+01  4.6751370098674592e+01  4.6718493382256774e+01  4.6677609701384711e+01  4.6626722142984200e+01  4.6563277173621543e+01  4.6483972144923499e+01  4.6384476085984410e+01  4.6259013906862748e+01  4.6099728497792839e+01  4.5895668265876090e+01  4.5631115707442326e+01  4.5282697513084251e+01  4.4814103690539660e+01  4.4165763878973635e+01  4.3232895807551486e+01  4.1813559402800315e+01  3.9467498928738543e+01  3.5057878250864995e+01  2.4901961404278605e+01  0.0000000000000000e+00  0.0000000000000000e+00  1.4551236709228878e+01  2.4610366495623119e+01  3.0702055970773984e+01  3.4468028315909081e+01  3.6925041298766338e+01  3.8609052652395825e+01  3.9809443432294550e+01  4.0691345491332768e+01  4.1354423426716416e+01  4.1861899929887301e+01  4.2255625159967458e+01  4.2564317984783564e+01  4.2808294754806134e+01  4.3002301400077101e+01  4.3157275022324399e+01  4.3281476919359179e+01  4.3381243336806257e+01  4.3461496350760783e+01  4.3526099967028848e+01  4.3578113790839311e+01  4.3619977340505322e+01  4.3653646400269416e+01  4.3680695554110315e+01  4.3702396433927099e+01  4.3719778227121026e+01  4.3733675014361971e+01  4.3744763181760348e+01  4.3753591246232602e+01  4.3760603805749959e+01  4.3766160885761842e+01  4.3770553639605986e+01  4.3774017134603582e+01  4.3776740790241931e+01  4.3778876912374471e+01  4.3780547675360410e+01  4.3781850833981885e+01  4.3782864392837439e+01  4.3783650418521042e+01  4.3784258146269572e+01  4.3784726505754364e+01  4.3785086168776665e+01  4.3785361203650936e+01  4.3785570406203547e+01  4.3785728364938407e+01  4.3785846307540858e+01  4.3785932767128820e+01  4.3785994099211358e+01  4.3786034873922354e+01  4.3786058162553466e+01  4.3786065732530467e+01  4.3786058160589043e+01  4.3786034869870974e+01  4.3785994092822889e+01  4.3785932758014255e+01  4.3785846295155750e+01  4.3785728348559935e+01  4.3785570384901689e+01  4.3785361176252842e+01  4.3785086133823775e+01  4.3784726461452358e+01  4.3784258090430889e+01  4.3783650348499947e+01  4.3782864305457032e+01  4.3781850725455548e+01  4.3780547541206019e+01  4.3778876747325548e+01  4.3776740588155590e+01  4.3774016888369069e+01  4.3770553341057663e+01  4.3766160525599673e+01  4.3760603373473351e+01  4.3753590730093002e+01  4.3744762568739162e+01  4.3733674290179877e+01  4.3719777376285549e+01  4.3702395439824812e+01  4.3680694399149537e+01  4.3653645066077011e+01  4.3619975808179895e+01  4.3578112041260866e+01  4.3526097981220907e+01  4.3461494110297117e+01  4.3381240824250277e+01  4.3281474118719117e+01  4.3157271919501348e+01  4.3002297983278503e+01  4.2808291014890422e+01  4.2564313915497024e+01  4.2255620758026204e+01  4.1861895194849922e+01  4.1354418360577924e+01  4.0691340097749503e+01  3.9809437715301371e+01  3.8609046614381491e+01  3.6925034937262126e+01  3.4468021618312029e+01  3.0702048905590310e+01  2.4610359002225088e+01  1.4551228740490489e+01  0.0000000000000000e+00  0.0000000000000000e+00  9.9492782246087774e+00  1.8135228218223517e+01  2.4132577320516198e+01  2.8364725722222140e+01  3.1364506924391694e+01  3.3531195987708323e+01  3.5129580274016973e+01  3.6331629334522695e+01  3.7250431954012043e+01  3.7962113520904239e+01  3.8519255904330493e+01  3.8959094622390857e+01  3.9308605230224522e+01  3.9587730361714961e+01  3.9811476862182836e+01  3.9991311480382876e+01  4.0136111162137091e+01  4.0252824145461972e+01  4.0346939216672830e+01  4.0422825103507797e+01  4.0483980258636258e+01  4.0533219678614110e+01  4.0572816712734912e+01  4.0604612165013499e+01  4.0630099255346394e+01  4.0650490495452857e+01  4.0666770824008516e+01  4.0679740162862437e+01  4.0690047728310219e+01  4.0698219844378080e+01  4.0704682583653295e+01  4.0709780254860917e+01  4.0713790530864792e+01  4.0716936842562461e+01  4.0719398536999407e+01  4.0721319200604754e+01  4.0722813472777673e+01  4.0723972615487057e+01  4.0724869057054185e+01  4.0725560089977108e+01  4.0726090871413433e+01  4.0726496849227267e+01  4.0726805715169014e+01  4.0727038968925640e+01  4.0727213161780355e+01  4.0727340875925911e+01  4.0727431484653877e+01  4.0727491729341487e+01  4.0727526141072872e+01  4.0727537327601553e+01  4.0727526139947685e+01  4.0727491727008541e+01  4.0727431480943402e+01  4.0727340870572320e+01  4.0727213154408616e+01  4.0727038959032718e+01  4.0726805702099924e+01  4.0726496832145322e+01  4.0726090849264253e+01  4.0725560061445790e+01  4.0724869020515506e+01  4.0723972568948255e+01  4.0722813413813704e+01  4.0721319126286396e+01  4.0719398443814903e+01  4.0716936726333238e+01  4.0713790386657486e+01  4.0709780076897559e+01  4.0704682365222929e+01  4.0698219577753527e+01  4.0690047404674239e+01  4.0679739772249484e+01  4.0666770355267190e+01  4.0650489936236028e+01  4.0630098592135866e+01  4.0604611383185159e+01  4.0572815796670213e+01  4.0533218611862843e+01  4.0483979024132545e+01  4.0422823683839077e+01  4.0346937594398739e+01  4.0252822303474090e+01  4.0136109084047241e+01  3.9991309150921289e+01  3.9811474267581417e+01  3.9587727490044337e+01  3.9308602071647663e+01  3.8959091169288072e+01  3.8519252151242583e+01  3.7962109464232725e+01  3.7250427591401248e+01  3.6331624663829544e+01  3.5129575291744771e+01  3.3531190686735961e+01  3.1364501290789292e+01  2.8364719731039873e+01  2.4132570931275541e+01  1.8135221374224262e+01  9.9492708600370960e+00  0.0000000000000000e+00  0.0000000000000000e+00  7.4145368743928621e+00  1.3993096791104696e+01  1.9339173820318518e+01  2.3480531202453989e+01  2.6631952755715172e+01  2.9027669211733610e+01  3.0860904996866907e+01  3.2276582775148491e+01  3.3380011486574517e+01  3.4247341995823199e+01  3.4934024078353495e+01  3.5480918278567550e+01  3.5918546382243420e+01  3.6270019448241023e+01  3.6553062148400521e+01  3.6781426263392589e+01  3.6965890497830898e+01  3.7114977839309432e+01  3.7235477864651493e+01  3.7332832606626788e+01  3.7411425677009341e+01  3.7474801837094248e+01  3.7525835866868206e+01  3.7566863964116955e+01  3.7599787076329044e+01  3.7626152931439741e+01  3.7647221697476574e+01  3.7664018908984595e+01  3.7677378378911534e+01  3.7687977153719238e+01  3.7696364089070805e+01  3.7702983270273059e+01  3.7708193238952461e+01  3.7712282789626514e+01  3.7715483948949327e+01  3.7717982633813619e+01  3.7719927393190162e+01  3.7721436566162993e+01  3.7722604130461214e+01  3.7723504468552143e+01  3.7724196239605789e+01  3.7724725513557246e+01  3.7725128296735221e+01  3.7725432556054443e+01  3.7725659829790665e+01  3.7725826496832191e+01  3.7725944762509798e+01  3.7726023407215685e+01  3.7726068333663079e+01  3.7726082939474949e+01  3.7726068333536823e+01  3.7726023406926174e+01  3.7725944761979690e+01  3.7725826495937177e+01  3.7725659828349009e+01  3.7725432553812929e+01  3.7725128293349890e+01  3.7724725508569684e+01  3.7724196232413320e+01  3.7723504458371949e+01  3.7722604116286981e+01  3.7721436546714429e+01  3.7719927366854130e+01  3.7717982598577215e+01  3.7715483902324621e+01  3.7712282728567764e+01  3.7708193159766850e+01  3.7702983168526892e+01  3.7696363959493347e+01  3.7687976990107934e+01  3.7677378174043078e+01  3.7664018654536747e+01  3.7647221383967199e+01  3.7626152548189808e+01  3.7599786611456729e+01  3.7566863404570285e+01  3.7525835198502435e+01  3.7474801044800294e+01  3.7411424744896223e+01  3.7332831518259248e+01  3.7235476603339599e+01  3.7114976388442734e+01  3.6965888841243959e+01  3.6781424385742525e+01  3.6553060035530180e+01  3.6270017087494132e+01  3.5918543762690867e+01  3.5480915391095877e+01  3.4934020915558960e+01  3.4247338551647196e+01  3.3380007755607103e+01  3.2276578751517441e+01  3.0860900672621543e+01  2.9027664574636471e+01  2.6631947786400637e+01  2.3480525871091977e+01  1.9339168083335004e+01  1.3993090588655431e+01  7.4145301263348005e+00  0.0000000000000000e+00  0.0000000000000000e+00  5.8112833981660499e+00  1.1169420848939106e+01  1.5792303474068643e+01  1.9605016201742988e+01  2.2670164541209594e+01  2.5105766420793309e+01  2.7034853076686918e+01  2.8564627276854043e+01  2.9781695827079385e+01  3.0753767326926660e+01  3.1533135928282164e+01  3.2160124387762338e+01  3.2665940099894300e+01  3.3074887120920515e+01  3.3406030364449599e+01  3.3674434475549660e+01  3.3892085221523374e+01  3.4068577773192651e+01  3.4211634660240271e+01  3.4327499077485804e+01  3.4421236477172144e+01  3.4496968158003448e+01  3.4558053968054800e+01  3.4607236545964803e+01  3.4646756183748600e+01  3.4678443008226907e+01  3.4703791465198343e+01  3.4724020853446646e+01  3.4740124755962960e+01  3.4752911556215281e+01  3.4763037739582472e+01  3.4771035315955800e+01  3.4777334424828837e+01  3.4782281974627836e+01  3.4786157006223668e+01  3.4789183344064476e+01  3.4791539998222078e+01  3.4793369700379245e+01  3.4794785891702261e+01  3.4795878427203498e+01  3.4796718217069738e+01  3.4797360988624533e+01  3.4797850321681793e+01  3.4798220083930353e+01  3.4798496370809573e+01  3.4798699035396773e+01  3.4798842877558862e+01  3.4798938547540367e+01  3.4798993206848522e+01  3.4799010978378028e+01  3.4798993207856839e+01  3.4798938549570416e+01  3.4798842880635412e+01  3.4798699039551423e+01  3.4798496376073558e+01  3.4798220090324477e+01  3.4797850329202397e+01  3.4797360997225162e+01  3.4796718226637402e+01  3.4795878437528678e+01  3.4794785902441618e+01  3.4793369711010286e+01  3.4791540007988324e+01  3.4789183351911049e+01  3.4786157010722441e+01  3.4782281973892395e+01  3.4777334416419535e+01  3.4771035296776624e+01  3.4763037705771410e+01  3.4752911503031790e+01  3.4740124677676377e+01  3.4724020743231364e+01  3.4703791315042032e+01  3.4678442808859614e+01  3.4646755924600711e+01  3.4607236215162551e+01  3.4558053552461843e+01  3.4496967643315799e+01  3.4421235848071667e+01  3.4327498317855508e+01  3.4211633753439585e+01  3.4068576702386743e+01  3.3892083970053584e+01  3.3674433027325968e+01  3.3406028704337530e+01  3.3074885235087280e+01  3.2665937976070502e+01  3.2160122015367925e+01  3.1533133298357967e+01  3.0753764431807301e+01  2.9781692659739363e+01  2.8564623829858061e+01  2.7034849340683444e+01  2.5105762382512719e+01  2.2670160180982162e+01  1.9605011490646419e+01  1.5792298370876896e+01  1.1169415296774797e+01  5.8112773198148213e+00  0.0000000000000000e+00  0.0000000000000000e+00  4.7002777445569288e+00  9.1302673191250854e+00  1.3095711654283409e+01  1.6507946691969504e+01  1.9366071941052500e+01  2.1720721360955665e+01  2.3642955671767361e+01  2.5205424914089431e+01  2.6473606288358479e+01  2.7503005840630784e+01  2.8339237309559188e+01  2.9019221778819180e+01  2.9572656743511402e+01  3.0023397664706643e+01  3.0390633648680950e+01  3.0689842503982735e+01  3.0933549389801840e+01  3.1131923580084830e+01  3.1293246666960020e+01  3.1424280504253204e+01  3.1530557565695844e+01  3.1616611357582688e+01  3.1686160406375478e+01  3.1742256117141881e+01  3.1787402332975731e+01  3.1823652563394479e+01  3.1852689451718572e+01  3.1875890003735840e+01  3.1894379313819815e+01  3.1909074932750954e+01  3.1920723573405400e+01  3.1929931508883428e+01  3.1937189755016405e+01  3.1942894925278246e+01  3.1947366486087034e+01  3.1950861013430643e+01  3.1953583949704257e+01  3.1955699276744912e+01  3.1957337452972567e+01  3.1958601906102647e+01  3.1959574325696984e+01  3.1960318960073160e+01  3.1960886088421958e+01  3.1961314810314637e+01  3.1961635270266800e+01  3.1961870413967148e+01  3.1962037354589015e+01  3.1962148411787915e+01  3.1962211872096777e+01  3.1962232507072638e+01  3.1962211874348117e+01  3.1962148416358268e+01  3.1962037361612634e+01  3.1961870423642601e+01  3.1961635282853091e+01  3.1961314826125015e+01  3.1960886107814794e+01  3.1960318983438906e+01  3.1959574353440011e+01  3.1958601938616624e+01  3.1957337490608143e+01  3.1955699319768343e+01  3.1953583998245158e+01  3.1950861067417840e+01  3.1947366545171725e+01  3.1942894988743376e+01  3.1937189821672501e+01  3.1929931576951866e+01  3.1920723640390360e+01  3.1909074995303786e+01  3.1894379367599406e+01  3.1875890043271152e+01  3.1852689470280534e+01  3.1823652552885928e+01  3.1787402283848920e+01  3.1742256018354226e+01  3.1686160245393999e+01  3.1616611120447171e+01  3.1530557237148457e+01  3.1424280067940309e+01  3.1293246105706817e+01  3.1131922876238512e+01  3.0933548525632506e+01  3.0689841462122487e+01  3.0390632412574043e+01  3.0023396219033977e+01  2.9572655074544002e+01  2.9019219874647412e+01  2.8339235160137775e+01  2.7503003437576265e+01  2.6473603624435061e+01  2.5205421982325145e+01  2.3642952464156451e+01  2.1720717866729462e+01  1.9366068144542272e+01  1.6507942570127064e+01  1.3095707173927767e+01  9.1302624338918914e+00  4.7002723913977071e+00  0.0000000000000000e+00  0.0000000000000000e+00  3.8804873940778468e+00  7.5880642960576958e+00  1.0987309998659249e+01  1.3999669761989212e+01  1.6601065181259710e+01  1.8806717361169184e+01  2.0653937045920625e+01  2.2188803383362252e+01  2.3457925913378055e+01  2.4504233668980149e+01  2.5365317610749980e+01  2.6073167815060241e+01  2.6654571148020999e+01  2.7131759402374975e+01  2.7523100953562320e+01  2.7843743032034073e+01  2.8106170912828500e+01  2.8320678778309077e+01  2.8495759280601579e+01  2.8638423045302048e+01  2.8754459824791983e+01  2.8848651915770770e+01  2.8924948862773313e+01  2.8986610859611563e+01  2.9036326827697618e+01  2.9076311950396878e+01  2.9108388470994164e+01  2.9134052789866022e+01  2.9154531289316946e+01  2.9170826839201027e+01  2.9183757564437414e+01  2.9193989163533384e+01  2.9202061836793021e+01  2.9208412699667104e+01  2.9213394409705852e+01  2.9217290616471143e+01  2.9220328746268034e+01  2.9222690552937891e+01  2.9224520798674437e+01  2.9225934372204641e+01  2.9227022103697703e+01  2.9227855494871555e+01  2.9228490547754376e+01  2.9228970845466993e+01  2.9229330012444386e+01  2.9229593659058633e+01  2.9229780896087714e+01  2.9229905487402004e+01  2.9229976694175473e+01  2.9229999850463557e+01  2.9229976697748988e+01  2.9229905494673421e+01  2.9229780907305773e+01  2.9229593674596380e+01  2.9229330032798327e+01  2.9228970871254901e+01  2.9228490579710801e+01  2.9227855533839787e+01  2.9227022150616701e+01  2.9225934428089285e+01  2.9224520864587408e+01  2.9222690629951117e+01  2.9220328835411618e+01  2.9217290718668167e+01  2.9213394525691037e+01  2.9208412829888381e+01  2.9202061981295302e+01  2.9193989321824848e+01  2.9183757735339615e+01  2.9170827020686119e+01  2.9154531478335919e+01  2.9134052982174520e+01  2.9108388660984097e+01  2.9076312130943801e+01  2.9036326990034908e+01  2.8986610993244913e+01  2.8924948955448130e+01  2.8848651953505570e+01  2.8754459791988875e+01  2.8638422924942663e+01  2.8495759054532822e+01  2.8320678427616226e+01  2.8106170418286887e+01  2.7843742374621389e+01  2.7523100115004109e+01  2.7131758365686228e+01  2.6654569897997167e+01  2.6073166338662567e+01  2.5365315897324287e+01  2.4504231710245438e+01  2.3457923703123281e+01  2.2188800916798169e+01  2.0653934318650986e+01  1.8806714367769764e+01  1.6601061913488547e+01  1.3999666206682720e+01  1.0987306135391568e+01  7.5880600946630254e+00  3.8804828121811390e+00  0.0000000000000000e+00  0.0000000000000000e+00  3.2479160366483155e+00  6.3792467280153717e+00  9.2974664930091411e+00  1.1938356115121179e+01  1.4271771280912249e+01  1.6295647049754798e+01  1.8026946384583852e+01  1.9493157786511780e+01  2.0725945842454976e+01  2.1757106358362705e+01  2.2616337462164665e+01  2.3330227187232204e+01  2.3921968258817124e+01  2.4411464664167692e+01  2.4815622923788769e+01  2.5148709898800483e+01  2.5422714670044872e+01  2.5647684634287458e+01  2.5832024015268161e+01  2.5982752406120213e+01  2.6105725486288090e