<?xml version="1.0"?>
<VTKFile type="UnstructuredGrid"  version="0.1"  >
<UnstructuredGrid>
<Piece  NumberOfPoints="10201" NumberOfCells="20000">
<Points>
<DataArray  type="Float64"  NumberOfComponents="3"  format="ascii">0 0 0  0.01 0 0  0.02 0 0  0.03 0 0  0.04 0 0  0.05 0 0  0.06 0 0  0.07000000000000001 0 0  0.08 0 0  0.09 0 0  0.1 0 0  0.11 0 0  0.12 0 0  0.13 0 0  0.14 0 0  0.15 0 0  0.16 0 0  0.17 0 0  0.18 0 0  0.19 0 0  0.2 0 0  0.21 0 0  0.22 0 0  0.23 0 0  0.24 0 0  0.25 0 0  0.26 0 0  0.27 0 0  0.28 0 0  0.29 0 0  0.3 0 0  0.31 0 0  0.32 0 0  0.33 0 0  0.34 0 0  0.35 0 0  0.36 0 0  0.37 0 0  0.38 0 0  0.39 0 0  0.4 0 0  0.41 0 0  0.42 0 0  0.43 0 0  0.44 0 0  0.45 0 0  0.46 0 0  0.47 0 0  0.48 0 0  0.49 0 0  0.5 0 0  0.51 0 0  0.52 0 0  0.53 0 0  0.54 0 0  0.55 0 0  0.5600000000000001 0 0  0.57 0 0  0.58 0 0  0.59 0 0  0.6 0 0  0.61 0 0  0.62 0 0  0.63 0 0  0.64 0 0  0.65 0 0  0.66 0 0  0.67 0 0  0.68 0 0  0.6899999999999999 0 0  0.7 0 0  0.71 0 0  0.72 0 0  0.73 0 0  0.74 0 0  0.75 0 0  0.76 0 0  0.77 0 0  0.78 0 0  0.79 0 0  0.8 0 0  0.8100000000000001 0 0  0.82 0 0  0.83 0 0  0.84 0 0  0.85 0 0  0.86 0 0  0.87 0 0  0.88 0 0  0.89 0 0  0.9 0 0  0.91 0 0  0.92 0 0  0.93 0 0  0.9399999999999999 0 0  0.95 0 0  0.96 0 0  0.97 0 0  0.98 0 0  0.99 0 0  1 0 0  0 0.01 0  0.01 0.01 0  0.02 0.01 0  0.03 0.01 0  0.04 0.01 0  0.05 0.01 0  0.06 0.01 0  0.07000000000000001 0.01 0  0.08 0.01 0  0.09 0.01 0  0.1 0.01 0  0.11 0.01 0  0.12 0.01 0  0.13 0.01 0  0.14 0.01 0  0.15 0.01 0  0.16 0.01 0  0.17 0.01 0  0.18 0.01 0  0.19 0.01 0  0.2 0.01 0  0.21 0.01 0  0.22 0.01 0  0.23 0.01 0  0.24 0.01 0  0.25 0.01 0  0.26 0.01 0  0.27 0.01 0  0.28 0.01 0  0.29 0.01 0  0.3 0.01 0  0.31 0.01 0  0.32 0.01 0  0.33 0.01 0  0.34 0.01 0  0.35 0.01 0  0.36 0.01 0  0.37 0.01 0  0.38 0.01 0  0.39 0.01 0  0.4 0.01 0  0.41 0.01 0  0.42 0.01 0  0.43 0.01 0  0.44 0.01 0  0.45 0.01 0  0.46 0.01 0  0.47 0.01 0  0.48 0.01 0  0.49 0.01 0  0.5 0.01 0  0.51 0.01 0  0.52 0.01 0  0.53 0.01 0  0.54 0.01 0  0.55 0.01 0  0.5600000000000001 0.01 0  0.57 0.01 0  0.58 0.01 0  0.59 0.01 0  0.6 0.01 0  0.61 0.01 0  0.62 0.01 0  0.63 0.01 0  0.64 0.01 0  0.65 0.01 0  0.66 0.01 0  0.67 0.01 0  0.68 0.01 0  0.6899999999999999 0.01 0  0.7 0.01 0  0.71 0.01 0  0.72 0.01 0  0.73 0.01 0  0.74 0.01 0  0.75 0.01 0  0.76 0.01 0  0.77 0.01 0  0.78 0.01 0  0.79 0.01 0  0.8 0.01 0  0.8100000000000001 0.01 0  0.82 0.01 0  0.83 0.01 0  0.84 0.01 0  0.85 0.01 0  0.86 0.01 0  0.87 0.01 0  0.88 0.01 0  0.89 0.01 0  0.9 0.01 0  0.91 0.01 0  0.92 0.01 0  0.93 0.01 0  0.9399999999999999 0.01 0  0.95 0.01 0  0.96 0.01 0  0.97 0.01 0  0.98 0.01 0  0.99 0.01 0  1 0.01 0  0 0.02 0  0.01 0.02 0  0.02 0.02 0  0.03 0.02 0  0.04 0.02 0  0.05 0.02 0  0.06 0.02 0  0.07000000000000001 0.02 0  0.08 0.02 0  0.09 0.02 0  0.1 0.02 0  0.11 0.02 0  0.12 0.02 0  0.13 0.02 0  0.14 0.02 0  0.15 0.02 0  0.16 0.02 0  0.17 0.02 0  0.18 0.02 0  0.19 0.02 0  0.2 0.02 0  0.21 0.02 0  0.22 0.02 0  0.23 0.02 0  0.24 0.02 0  0.25 0.02 0  0.26 0.02 0  0.27 0.02 0  0.28 0.02 0  0.29 0.02 0  0.3 0.02 0  0.31 0.02 0  0.32 0.02 0  0.33 0.02 0  0.34 0.02 0  0.35 0.02 0  0.36 0.02 0  0.37 0.02 0  0.38 0.02 0  0.39 0.02 0  0.4 0.02 0  0.41 0.02 0  0.42 0.02 0  0.43 0.02 0  0.44 0.02 0  0.45 0.02 0  0.46 0.02 0  0.47 0.02 0  0.48 0.02 0  0.49 0.02 0  0.5 0.02 0  0.51 0.02 0  0.52 0.02 0  0.53 0.02 0  0.54 0.02 0  0.55 0.02 0  0.5600000000000001 0.02 0  0.57 0.02 0  0.58 0.02 0  0.59 0.02 0  0.6 0.02 0  0.61 0.02 0  0.62 0.02 0  0.63 0.02 0  0.64 0.02 0  0.65 0.02 0  0.66 0.02 0  0.67 0.02 0  0.68 0.02 0  0.6899999999999999 0.02 0  0.7 0.02 0  0.71 0.02 0  0.72 0.02 0  0.73 0.02 0  0.74 0.02 0  0.75 0.02 0  0.76 0.02 0  0.77 0.02 0  0.78 0.02 0  0.79 0.02 0  0.8 0.02 0  0.8100000000000001 0.02 0  0.82 0.02 0  0.83 0.02 0  0.84 0.02 0  0.85 0.02 0  0.86 0.02 0  0.87 0.02 0  0.88 0.02 0  0.89 0.02 0  0.9 0.02 0  0.91 0.02 0  0.92 0.02 0  0.93 0.02 0  0.9399999999999999 0.02 0  0.95 0.02 0  0.96 0.02 0  0.97 0.02 0  0.98 0.02 0  0.99 0.02 0  1 0.02 0  0 0.03 0  0.01 0.03 0  0.02 0.03 0  0.03 0.03 0  0.04 0.03 0  0.05 0.03 0  0.06 0.03 0  0.07000000000000001 0.03 0  0.08 0.03 0  0.09 0.03 0  0.1 0.03 0  0.11 0.03 0  0.12 0.03 0  0.13 0.03 0  0.14 0.03 0  0.15 0.03 0  0.16 0.03 0  0.17 0.03 0  0.18 0.03 0  0.19 0.03 0  0.2 0.03 0  0.21 0.03 0  0.22 0.03 0  0.23 0.03 0  0.24 0.03 0  0.25 0.03 0  0.26 0.03 0  0.27 0.03 0  0.28 0.03 0  0.29 0.03 0  0.3 0.03 0  0.31 0.03 0  0.32 0.03 0  0.33 0.03 0  0.34 0.03 0  0.35 0.03 0  0.36 0.03 0  0.37 0.03 0  0.38 0.03 0  0.39 0.03 0  0.4 0.03 0  0.41 0.03 0  0.42 0.03 0  0.43 0.03 0  0.44 0.03 0  0.45 0.03 0  0.46 0.03 0  0.47 0.03 0  0.48 0.03 0  0.49 0.03 0  0.5 0.03 0  0.51 0.03 0  0.52 0.03 0  0.53 0.03 0  0.54 0.03 0  0.55 0.03 0  0.5600000000000001 0.03 0  0.57 0.03 0  0.58 0.03 0  0.59 0.03 0  0.6 0.03 0  0.61 0.03 0  0.62 0.03 0  0.63 0.03 0  0.64 0.03 0  0.65 0.03 0  0.66 0.03 0  0.67 0.03 0  0.68 0.03 0  0.6899999999999999 0.03 0  0.7 0.03 0  0.71 0.03 0  0.72 0.03 0  0.73 0.03 0  0.74 0.03 0  0.75 0.03 0  0.76 0.03 0  0.77 0.03 0  0.78 0.03 0  0.79 0.03 0  0.8 0.03 0  0.8100000000000001 0.03 0  0.82 0.03 0  0.83 0.03 0  0.84 0.03 0  0.85 0.03 0  0.86 0.03 0  0.87 0.03 0  0.88 0.03 0  0.89 0.03 0  0.9 0.03 0  0.91 0.03 0  0.92 0.03 0  0.93 0.03 0  0.9399999999999999 0.03 0  0.95 0.03 0  0.96 0.03 0  0.97 0.03 0  0.98 0.03 0  0.99 0.03 0  1 0.03 0  0 0.04 0  0.01 0.04 0  0.02 0.04 0  0.03 0.04 0  0.04 0.04 0  0.05 0.04 0  0.06 0.04 0  0.07000000000000001 0.04 0  0.08 0.04 0  0.09 0.04 0  0.1 0.04 0  0.11 0.04 0  0.12 0.04 0  0.13 0.04 0  0.14 0.04 0  0.15 0.04 0  0.16 0.04 0  0.17 0.04 0  0.18 0.04 0  0.19 0.04 0  0.2 0.04 0  0.21 0.04 0  0.22 0.04 0  0.23 0.04 0  0.24 0.04 0  0.25 0.04 0  0.26 0.04 0  0.27 0.04 0  0.28 0.04 0  0.29 0.04 0  0.3 0.04 0  0.31 0.04 0  0.32 0.04 0  0.33 0.04 0  0.34 0.04 0  0.35 0.04 0  0.36 0.04 0  0.37 0.04 0  0.38 0.04 0  0.39 0.04 0  0.4 0.04 0  0.41 0.04 0  0.42 0.04 0  0.43 0.04 0  0.44 0.04 0  0.45 0.04 0  0.46 0.04 0  0.47 0.04 0  0.48 0.04 0  0.49 0.04 0  0.5 0.04 0  0.51 0.04 0  0.52 0.04 0  0.53 0.04 0  0.54 0.04 0  0.55 0.04 0  0.5600000000000001 0.04 0  0.57 0.04 0  0.58 0.04 0  0.59 0.04 0  0.6 0.04 0  0.61 0.04 0  0.62 0.04 0  0.63 0.04 0  0.64 0.04 0  0.65 0.04 0  0.66 0.04 0  0.67 0.04 0  0.68 0.04 0  0.6899999999999999 0.04 0  0.7 0.04 0  0.71 0.04 0  0.72 0.04 0  0.73 0.04 0  0.74 0.04 0  0.75 0.04 0  0.76 0.04 0  0.77 0.04 0  0.78 0.04 0  0.79 0.04 0  0.8 0.04 0  0.8100000000000001 0.04 0  0.82 0.04 0  0.83 0.04 0  0.84 0.04 0  0.85 0.04 0  0.86 0.04 0  0.87 0.04 0  0.88 0.04 0  0.89 0.04 0  0.9 0.04 0  0.91 0.04 0  0.92 0.04 0  0.93 0.04 0  0.9399999999999999 0.04 0  0.95 0.04 0  0.96 0.04 0  0.97 0.04 0  0.98 0.04 0  0.99 0.04 0  1 0.04 0  0 0.05 0  0.01 0.05 0  0.02 0.05 0  0.03 0.05 0  0.04 0.05 0  0.05 0.05 0  0.06 0.05 0  0.07000000000000001 0.05 0  0.08 0.05 0  0.09 0.05 0  0.1 0.05 0  0.11 0.05 0  0.12 0.05 0  0.13 0.05 0  0.14 0.05 0  0.15 0.05 0  0.16 0.05 0  0.17 0.05 0  0.18 0.05 0  0.19 0.05 0  0.2 0.05 0  0.21 0.05 0  0.22 0.05 0  0.23 0.05 0  0.24 0.05 0  0.25 0.05 0  0.26 0.05 0  0.27 0.05 0  0.28 0.05 0  0.29 0.05 0  0.3 0.05 0  0.31 0.05 0  0.32 0.05 0  0.33 0.05 0  0.34 0.05 0  0.35 0.05 0  0.36 0.05 0  0.37 0.05 0  0.38 0.05 0  0.39 0.05 0  0.4 0.05 0  0.41 0.05 0  0.42 0.05 0  0.43 0.05 0  0.44 0.05 0  0.45 0.05 0  0.46 0.05 0  0.47 0.05 0  0.48 0.05 0  0.49 0.05 0  0.5 0.05 0  0.51 0.05 0  0.52 0.05 0  0.53 0.05 0  0.54 0.05 0  0.55 0.05 0  0.5600000000000001 0.05 0  0.57 0.05 0  0.58 0.05 0  0.59 0.05 0  0.6 0.05 0  0.61 0.05 0  0.62 0.05 0  0.63 0.05 0  0.64 0.05 0  0.65 0.05 0  0.66 0.05 0  0.67 0.05 0  0.68 0.05 0  0.6899999999999999 0.05 0  0.7 0.05 0  0.71 0.05 0  0.72 0.05 0  0.73 0.05 0  0.74 0.05 0  0.75 0.05 0  0.76 0.05 0  0.77 0.05 0  0.78 0.05 0  0.79 0.05 0  0.8 0.05 0  0.8100000000000001 0.05 0  0.82 0.05 0  0.83 0.05 0  0.84 0.05 0  0.85 0.05 0  0.86 0.05 0  0.87 0.05 0  0.88 0.05 0  0.89 0.05 0  0.9 0.05 0  0.91 0.05 0  0.92 0.05 0  0.93 0.05 0  0.9399999999999999 0.05 0  0.95 0.05 0  0.96 0.05 0  0.97 0.05 0  0.98 0.05 0  0.99 0.05 0  1 0.05 0  0 0.06 0  0.01 0.06 0  0.02 0.06 0  0.03 0.06 0  0.04 0.06 0  0.05 0.06 0  0.06 0.06 0  0.07000000000000001 0.06 0  0.08 0.06 0  0.09 0.06 0  0.1 0.06 0  0.11 0.06 0  0.12 0.06 0  0.13 0.06 0  0.14 0.06 0  0.15 0.06 0  0.16 0.06 0  0.17 0.06 0  0.18 0.06 0  0.19 0.06 0  0.2 0.06 0  0.21 0.06 0  0.22 0.06 0  0.23 0.06 0  0.24 0.06 0  0.25 0.06 0  0.26 0.06 0  0.27 0.06 0  0.28 0.06 0  0.29 0.06 0  0.3 0.06 0  0.31 0.06 0  0.32 0.06 0  0.33 0.06 0  0.34 0.06 0  0.35 0.06 0  0.36 0.06 0  0.37 0.06 0  0.38 0.06 0  0.39 0.06 0  0.4 0.06 0  0.41 0.06 0  0.42 0.06 0  0.43 0.06 0  0.44 0.06 0  0.45 0.06 0  0.46 0.06 0  0.47 0.06 0  0.48 0.06 0  0.49 0.06 0  0.5 0.06 0  0.51 0.06 0  0.52 0.06 0  0.53 0.06 0  0.54 0.06 0  0.55 0.06 0  0.5600000000000001 0.06 0  0.57 0.06 0  0.58 0.06 0  0.59 0.06 0  0.6 0.06 0  0.61 0.06 0  0.62 0.06 0  0.63 0.06 0  0.64 0.06 0  0.65 0.06 0  0.66 0.06 0  0.67 0.06 0  0.68 0.06 0  0.6899999999999999 0.06 0  0.7 0.06 0  0.71 0.06 0  0.72 0.06 0  0.73 0.06 0  0.74 0.06 0  0.75 0.06 0  0.76 0.06 0  0.77 0.06 0  0.78 0.06 0  0.79 0.06 0  0.8 0.06 0  0.8100000000000001 0.06 0  0.82 0.06 0  0.83 0.06 0  0.84 0.06 0  0.85 0.06 0  0.86 0.06 0  0.87 0.06 0  0.88 0.06 0  0.89 0.06 0  0.9 0.06 0  0.91 0.06 0  0.92 0.06 0  0.93 0.06 0  0.9399999999999999 0.06 0  0.95 0.06 0  0.96 0.06 0  0.97 0.06 0  0.98 0.06 0  0.99 0.06 0  1 0.06 0  0 0.07000000000000001 0  0.01 0.07000000000000001 0  0.02 0.07000000000000001 0  0.03 0.07000000000000001 0  0.04 0.07000000000000001 0  0.05 0.07000000000000001 0  0.06 0.07000000000000001 0  0.07000000000000001 0.07000000000000001 0  0.08 0.07000000000000001 0  0.09 0.07000000000000001 0  0.1 0.07000000000000001 0  0.11 0.07000000000000001 0  0.12 0.07000000000000001 0  0.13 0.07000000000000001 0  0.14 0.07000000000000001 0  0.15 0.07000000000000001 0  0.16 0.07000000000000001 0  0.17 0.0700
[...]
<PointData  Scalars="f_17"> 
<DataArray  type="Float64"  Name="f_17"  format="ascii">0.0000000000000000e+00  5.0000000000000000e+01  5.0000000000000000e+01  5.0000000000000000e+01  5.0000000000000000e+01  5.0000000000000000e+01  5.0000000000000000e+01  5.0000000000000000e+01  5.0000000000000000e+01  5.0000000000000000e+01  5.0000000000000000e+01  5.0000000000000000e+01  5.0000000000000000e+01  5.0000000000000000e+01  5.0000000000000000e+01  5.0000000000000000e+01  5.0000000000000000e+01  5.0000000000000000e+01  5.0000000000000000e+01  5.0000000000000000e+01  5.0000000000000000e+01  5.0000000000000000e+01  5.0000000000000000e+01  5.0000000000000000e+01  5.0000000000000000e+01  5.0000000000000000e+01  5.0000000000000000e+01  5.0000000000000000e+01  5.0000000000000000e+01  5.0000000000000000e+01  5.0000000000000000e+01  5.0000000000000000e+01  5.0000000000000000e+01  5.0000000000000000e+01  5.0000000000000000e+01  5.0000000000000000e+01  5.0000000000000000e+01  5.0000000000000000e+01  5.0000000000000000e+01  5.0000000000000000e+01  5.0000000000000000e+01  5.0000000000000000e+01  5.0000000000000000e+01  5.0000000000000000e+01  5.0000000000000000e+01  5.0000000000000000e+01  5.0000000000000000e+01  5.0000000000000000e+01  5.0000000000000000e+01  5.0000000000000000e+01  5.0000000000000000e+01  5.0000000000000000e+01  5.0000000000000000e+01  5.0000000000000000e+01  5.0000000000000000e+01  5.0000000000000000e+01  5.0000000000000000e+01  5.0000000000000000e+01  5.0000000000000000e+01  5.0000000000000000e+01  5.0000000000000000e+01  5.0000000000000000e+01  5.0000000000000000e+01  5.0000000000000000e+01  5.0000000000000000e+01  5.0000000000000000e+01  5.0000000000000000e+01  5.0000000000000000e+01  5.0000000000000000e+01  5.0000000000000000e+01  5.0000000000000000e+01  5.0000000000000000e+01  5.0000000000000000e+01  5.0000000000000000e+01  5.0000000000000000e+01  5.0000000000000000e+01  5.0000000000000000e+01  5.0000000000000000e+01  5.0000000000000000e+01  5.0000000000000000e+01  5.0000000000000000e+01  5.0000000000000000e+01  5.0000000000000000e+01  5.0000000000000000e+01  5.0000000000000000e+01  5.0000000000000000e+01  5.0000000000000000e+01  5.0000000000000000e+01  5.0000000000000000e+01  5.0000000000000000e+01  5.0000000000000000e+01  5.0000000000000000e+01  5.0000000000000000e+01  5.0000000000000000e+01  5.0000000000000000e+01  5.0000000000000000e+01  5.0000000000000000e+01  5.0000000000000000e+01  5.0000000000000000e+01  5.0000000000000000e+01  0.0000000000000000e+00  0.0000000000000000e+00  2.4972386518972215e+01  3.5198434405002558e+01  3.9677612358276178e+01  4.2092379315047403e+01  4.3579306246158019e+01  4.4578398961122197e+01  4.5291365890475376e+01  4.5822778550437043e+01  4.6232019540287837e+01  4.6555235654825715e+01  4.6815662593668179e+01  4.7028906319175462e+01  4.7205832910961455e+01  4.7354239468131453e+01  4.7479865610828504e+01  4.7587030040891435e+01  4.7679044684258713e+01  4.7758491998295206e+01  4.7827415388313213e+01  4.7887452894348712e+01  4.7939932919099597e+01  4.7985943995323431e+01  4.8026386446974037e+01  4.8062011196888498e+01  4.8093449302597165e+01  4.8121234705540687e+01  4.8145821946046368e+01  4.8167600097837607e+01  4.8186903831247058e+01  4.8204022272615617e+01  4.8219206155533755e+01  4.8232673635891942e+01  4.8244615052613575e+01  4.8255196849614507e+01  4.8264564825192529e+01  4.8272846837999261e+01  4.8280155070671100e+01  4.8286587930739017e+01  4.8292231651905141e+01  4.8297161645934814e+01  4.8301443645367293e+01  4.8305134669325703e+01  4.8308283838411619e+01  4.8310933059627075e+01  4.8313117598191788e+01  4.8314866549796271e+01  4.8316203224086806e+01  4.8317145447880925e+01  4.8317705794656192e+01  4.8317891745159280e+01  4.8317705782470995e+01  4.8317145423480525e+01  4.8316203187411624e+01  4.8314866500757837e+01  4.8313117536673772e+01  4.8310932985486659e+01  4.8308283751481333e+01  4.8305134569415529e+01  4.8301443532266845e+01  4.8297161519416221e+01  4.8292231511725809e+01  4.8286587776645035e+01  4.8280154902400376e+01  4.8272846655285356e+01  4.8264564627768387e+01  4.8255196637216308e+01  4.8244614824984851e+01  4.8232673392787603e+01  4.8219205896724247e+01  4.8204021997891076e+01  4.8186903540421298e+01  4.8167599790751936e+01  4.8145821622573756e+01  4.8121234365589068e+01  4.8093448946112922e+01  4.8062010823859424e+01  4.8026386057432262e+01  4.7985943589347727e+01  4.7939932496817256e+01  4.7887452455936831e+01  4.7827414933999897e+01  4.7758491528359777e+01  4.7679044199031068e+01  4.7587029540751374e+01  4.7479865096203653e+01  4.7354238939494458e+01  4.7205832368826265e+01  4.7028905764092322e+01  4.6815662026217055e+01  4.6555235075607783e+01  4.6232018949913723e+01  4.5822777949510666e+01  4.5291365279568808e+01  4.4578398340732292e+01  4.3579305616618853e+01  4.2092378676315626e+01  3.9677611709273307e+01  3.5198433741053726e+01  2.4972385819090196e+01  0.0000000000000000e+00  0.0000000000000000e+00  1.4691207748243317e+01  2.4889738542439101e+01  3.1119689236457027e+01  3.5022233074035100e+01  3.7613601261571887e+01  3.9429255160845791e+01  4.0758115721487826e+01  4.1764896135302074e+01  4.2548887965539265e+01  4.3172989618914528e+01  4.3678777754719341e+01  4.4094749484569228e+01  4.4441051070809280e+01  4.4732308985600667e+01  4.4979389599140205e+01  4.5190529549028348e+01  4.5372083213468322e+01  4.5529029826298427e+01  4.5665325455083725e+01  4.5784152327843522e+01  4.5888098705406001e+01  4.5979290806545556e+01  4.6059491025516238e+01  4.6130172057572238e+01  4.6192573543295573e+01  4.6247745852001337e+01  4.6296584282307464e+01  4.6339856038113915e+01  4.6378221698316935e+01  4.6412252447171788e+01  4.6442444009656654e+01  4.6469228002927530e+01  4.6492981244359243e+01  4.6514033430606545e+01  4.6532673508036503e+01  4.6549154984023424e+01  4.6563700374752216e+01  4.6576504943928185e+01  4.6587739854931442e+01  4.6597554834167823e+01  4.6606080423926599e+01  4.6613429887705642e+01  4.6619700818739801e+01  4.6624976492666249e+01  4.6629326997321868e+01  4.6632810166184044e+01  4.6635472336604089e+01  4.6637348949493656e+01  4.6638465003295842e+01  4.6638835371750481e+01  4.6638464992000891e+01  4.6637348926875681e+01  4.6635472302607113e+01  4.6632810120725246e+01  4.6629326940292330e+01  4.6624976423932061e+01  4.6619700738144111e+01  4.6613429795070481e+01  4.6606080319054882e+01  4.6597554716845927e+01  4.6587739724932113e+01  4.6576504801013407e+01  4.6563700218676381e+01  4.6549154814536408e+01  4.6532673324887597e+01  4.6514033233547842e+01  4.6492981033149327e+01  4.6469227777335028e+01  4.6442443769464091e+01  4.6412252192179409e+01  4.6378221428345960e+01  4.6339855753009942e+01  4.6296583981944110e+01  4.6247745536282949e+01  4.6192573212159857e+01  4.6130171710992848e+01  4.6059490663504526e+01  4.5979290429152314e+01  4.5888098312722249e+01  4.5784151920001001e+01  4.5665325032254636e+01  4.5529029388694553e+01  4.5372082761339030e+01  4.5190529082658038e+01  4.4979389118844701e+01  4.4732308491721966e+01  4.4441050563709219e+01  4.4094748964621374e+01  4.3678777222298258e+01  4.3172989074382485e+01  4.2548887409227426e+01  4.1764895567485254e+01  4.0758115142346774e+01  3.9429254570406123e+01  3.7613600659597857e+01  3.5022232459829631e+01  3.1119688608494624e+01  2.4889737898049965e+01  1.4691207087660871e+01  0.0000000000000000e+00  0.0000000000000000e+00  1.0157092045784113e+01  1.8550008668688363e+01  2.4752634694414592e+01  2.9187555016110437e+01  3.2386822418095058e+01  3.4748975946735548e+01  3.6538120646375354e+01  3.7925605117656325e+01  3.9023964758635444e+01  3.9908843764213856e+01  4.0632418025664030e+01  4.1231593728050818e+01  4.1733093636964945e+01  4.2156682614473795e+01  4.2517261943693562e+01  4.2826261100000650e+01  4.3092583199764562e+01  4.3323260525097659e+01  4.3523917684530780e+01  4.3699104580415522e+01  4.3852539619159522e+01  4.3987289975022101e+01  4.4105907006809439e+01  4.4210529252481116e+01  4.4302961665305581e+01  4.4384737220648269e+01  4.4457165288193210e+01  4.4521369960566709e+01  4.4578320682429251e+01  4.4628856920774872e+01  4.4673708182295805e+01  4.4713510366721728e+01  4.4748819211651799e+01  4.4780121410839762e+01  4.4807843857644293e+01  4.4832361366751321e+01  4.4854003152007543e+01  4.4873058280294785e+01  4.4889780276482703e+01  4.4904391019437391e+01  4.4917084041486895e+01  4.4928027321893246e+01  4.4937365647440082e+01  4.4945222599215420e+01  4.4951702213284783e+01  4.4956890353626839e+01  4.4960855827979707e+01  4.4963651270761360e+01  4.4965313811693960e+01  4.4965865543945277e+01  4.4965313801302422e+01  4.4963651249951546e+01  4.4960855796698546e+01  4.4956890311795419e+01  4.4951702160799442e+01  4.4945222535948936e+01  4.4937365573243156e+01  4.4928027236596371e+01  4.4917083944902529e+01  4.4904390911362171e+01  4.4889780156700091e+01  4.4873058148577819e+01  4.4854003008121751e+01  4.4832361210457883e+01  4.4807843688703315e+01  4.4780121229013560e+01  4.4748819016708190e+01  4.4713510158437508e+01  4.4673707960460035e+01  4.4628856685192254e+01  4.4578320432923100e+01  4.4521369696982276e+01  4.4457165010399947e+01  4.4384736928542587e+01  4.4302961358813036e+01  4.4210528931557995e+01  4.4105906671444046e+01  4.3987289625235576e+01  4.3852539255006043e+01  4.3699104201981555e+01  4.3523917291934133e+01  4.3323260118485209e+01  4.3092582779309069e+01  4.2826260665896747e+01  4.2517261496152400e+01  4.2156682153715920e+01  4.1733093163211748e+01  4.1231593241513828e+01  4.0632417526531221e+01  3.9908843252632110e+01  3.9023964234688421e+01  3.7925604581334404e+01  3.6538120097534879e+01  3.4748975385041589e+01  3.2386821842941934e+01  2.9187554426526667e+01  2.4752634089029534e+01  1.8550008046105038e+01  1.0157091405696415e+01  0.0000000000000000e+00  0.0000000000000000e+00  7.6876757363612862e+00  1.4538261929126895e+01  2.0154148999323148e+01  2.4562030759443072e+01  2.7975666862238707e+01  3.0628322394785666e+01  3.2712326441804834e+01  3.4371786677728139e+01  3.5711285528214667e+01  3.6806341892925559e+01  3.7711872104513560e+01  3.8468303675789208e+01  3.9105825658755457e+01  3.9647314698610984e+01  4.0110355716795056e+01  4.0508650292196428e+01  4.0853010149936992e+01  4.1152067241792516e+01  4.1412788083406724e+01  4.1640851216148732e+01  4.1840927728505676e+01  4.2016892244946483e+01  4.2171983423217526e+01  4.2308927350988782e+01  4.2430033372795158e+01  4.2537269209916630e+01  4.2632320369685843e+01  4.2716637520661337e+01  4.2791474566057190e+01  4.2857919465545450e+01  4.2916919357470960e+01  4.2969301166413011e+01  4.3015788607969561e+01  4.3057016297759652e+01  4.3093541516633096e+01  4.3125854065870485e+01  4.3154384555329742e+01  4.3179511397190367e+01  4.3201566723146634e+01  4.3220841399886993e+01  4.3237589283703969e+01  4.3252030828031266e+01  4.3264356136027573e+01  4.3274727532823462e+01  4.3283281717798438e+01  4.3290131545544362e+01  4.3295367474440212e+01  4.3299058713569806e+01  4.3301254091704664e+01  4.3301982665954775e+01  4.3301254082224517e+01  4.3299058694583721e+01  4.3295367445896773e+01  4.3290131507367263e+01  4.3283281669887238e+01  4.3274727475054938e+01  4.3264356068257129e+01  4.3252030750094640e+01  4.3237589195419240e+01  4.3220841301056922e+01  4.3201566613560857e+01  4.3179511276628162e+01  4.3154384423562831e+01  4.3125853922666018e+01  4.3093541361756607e+01  4.3057016130978162e+01  4.3015788429054588e+01  4.2969300975143966e+01  4.2916919153638084e+01  4.2857919248952740e+01  4.2791474336525148e+01  4.2716637278029822e+01  4.2632320113816156e+01  4.2537268940693608e+01  4.2430033090128980e+01  4.2308927054815989e+01  4.2171983113501710e+01  4.2016891921678543e+01  4.1840927391703083e+01  4.1640850865854397e+01  4.1412787719686733e+01  4.1152066864732952e+01  4.0853009759639939e+01  4.0508649888774471e+01  4.0110355300364461e+01  3.9647314269283292e+01  3.9105825216626897e+01  3.8468303220928291e+01  3.7711871636945069e+01  3.6806341412611168e+01  3.5711285035028745e+01  3.4371786171427452e+01  3.2712325921990221e+01  3.0628321860855998e+01  2.7975666313339843e+01  2.4562030194430701e+01  2.0154148416788821e+01  1.4538261327541244e+01  7.6876751141481217e+00  0.0000000000000000e+00  0.0000000000000000e+00  6.1464815989799479e+00  1.1838454457398823e+01  1.6792459965356208e+01  2.0932274013621686e+01  2.4319248334301658e+01  2.7070218530794246e+01  2.9307119360787048e+01  3.1136155242639127e+01  3.2643042696849243e+01  3.3894715539788322e+01  3.4942813518379680e+01  3.5827127697257112e+01  3.6578456383735599e+01  3.7220814767852822e+01  3.7773094683507026e+01  3.8250297266319073e+01  3.8664446645781439e+01  3.9025269361234287e+01  3.9340702604138443e+01  3.9617277273790535e+01  3.9860409073051649e+01  4.0074621619458988e+01  4.0263718920669390e+01  4.0430919833889021e+01  4.0578963749515431e+01  4.0710194314564873e+01  4.0826626261839564e+01  4.0929999139774715e+01  4.1021820807869595e+01  4.1103402876952003e+01  4.1175889764202971e+01  4.1240282651668842e+01  4.1297459349574076e+01  4.1348190847464089e+01  4.1393155169263153e+01  4.1432949019772295e+01  4.1468097610473968e+01  4.1499062974750871e+01  4.1526251021569891e+01  4.1550017528438076e+01  4.1570673236075024e+01  4.1588488176549866e+01  4.1603695341898074e+01  4.1616493780166493e+01  4.1627051189423071e+01  4.1635506066719934e+01  4.1641969457697556e+01  4.1646526342965323e+01  4.1649236689192477e+01  4.1650136185664799e+01  4.1649236680627190e+01  4.1646526325809241e+01  4.1641969431900023e+01  4.1635506032205562e+01  4.1627051146092775e+01  4.1616493727898657e+01  4.1603695280549857e+01  4.1588488105958909e+01  4.1570673156061417e+01  4.1550017438806449e+01  4.1526250922111743e+01  4.1499062865246998e+01  4.1468097490697460e+01  4.1432948889491051e+01  4.1393155028242880e+01  4.1348190695471175e+01  4.1297459186378546e+01  4.1240282477047465e+01  4.1175889577941824e+01  4.1103402678849484e+01  4.1021820597738738e+01  4.0929998917445886e+01  4.0826626027161993e+01  4.0710194067408636e+01  4.0578963489772732e+01  4.0430919561474866e+01  4.0263718635521762e+01  4.0074621321538658e+01  3.9860408762340747e+01  3.9617276950290801e+01  3.9340702267868217e+01  3.9025269012224683e+01  3.8664446284071161e+01  3.8250296891948203e+01  3.7773094296509029e+01  3.7220814368244874e+01  3.6578455971507069e+01  3.5827127272355433e+01  3.4942813080693533e+01  3.3894715089127210e+01  3.2643042232919264e+01  3.1136154765013899e+01  2.9307118868873779e+01  2.7070218023796397e+01  2.4319247811182258e+01  2.0932273473077338e+01  1.6792459405811890e+01  1.1838453877003392e+01  6.1464809954968471e+00  0.0000000000000000e+00  0.0000000000000000e+00  5.0935955658218450e+00  9.9153082142641953e+00  1.4269303126544465e+01  1.8065385046900264e+01  2.1301186721531177e+01  2.4025958669123547e+01  2.6309478287836036e+01  2.8223226755986605e+01  2.9831638481770650e+01  3.1189311493080634e+01  3.2341092006753449e+01  3.3323276843935432e+01  3.4165082413369397e+01  3.4890023530285717e+01  3.5517083967802897e+01  3.6061664305931451e+01  3.6536331639052598e+01  3.6951406033036889e+01  3.7315417426308848e+01  3.7635461636610742e+01  3.7917478487491756e+01  3.8166470002719009e+01  3.8386672459622659e+01  3.8581692825403920e+01  3.8754617590209051e+01  3.8908100104131982e+01  3.9044431084590393e+01  3.9165595873267407e+01  3.9273321200332099e+01  3.9369113591260572e+01  3.9454291078228003e+01  3.9530009516431775e+01  3.9597284528102804e+01  3.9657009882757407e+01  3.9709972956077529e+01  3.9756867780222727e+01  3.9798306096770752e+01  3.9834826743389584e+01  3.9866903641861377e+01  3.9894952604489212e+01  3.9919337135377432e+01  3.9940373370399286e+01  3.9958334273167310e+01  3.9973453182683578e+01  3.9985926790550891e+01  3.9995917610854875e+01  4.0003555993443896e+01  4.0008941720815557e+01  4.0012145219751091e+01  4.0013208410868337e+01  4.0012145212099924e+01  4.0008941705487544e+01  4.0003555970388057e+01  3.9995917579995506e+01  3.9985926751788256e+01  3.9973453135895248e+01  3.9958334218209338e+01  3.9940373307108068e+01  3.9919337063571426e+01  3.9894952523971014e+01  3.9866903552419934e+01  3.9834826644802952e+01  3.9798305988808487e+01  3.9756867662648609e+01  3.9709972828652390e+01  3.9657009745241972e+01  3.9597284380260518e+01  3.9530009358031649e+01  3.9454290909047273e+01  3.9369113411087405e+01  3.9273321008967883e+01  3.9165595670528873e+01  3.9044430870311544e+01  3.8908099878165402e+01  3.8754617352426919e+01  3.8581692575698497e+01  3.8386672197906151e+01  3.8166469728922777e+01  3.7917478201564734e+01  3.7635461338516933e+01  3.7315417116023937e+01  3.6951405710543654e+01  3.6536331304335278e+01  3.6061663958968595e+01  3.5517083608558686e+01  3.4890023158699606e+01  3.4165082029343729e+01  3.3323276447320680e+01  3.2341091597330909e+01  3.1189311070542061e+01  2.9831638045694753e+01  2.8223226305811789e+01  2.6309477822830338e+01  2.4025958188352259e+01  2.1301186223825084e+01  1.8065384530826584e+01  1.4269302590377830e+01  9.9153076559395057e+00  5.0935949828323830e+00  0.0000000000000000e+00  0.0000000000000000e+00  4.3273984689205189e+00  8.4800806178739929e+00  1.2320840597400407e+01  1.5769390255102826e+01  1.8799990446524596e+01  2.1426295520507946e+01  2.3684162410637072e+01  2.5618345599116850e+01  2.7274272233807778e+01  2.8693841087961921e+01  2.9913771497202131e+01  3.0965343717904378e+01  3.1874796564719741e+01  3.2663972520487796e+01  3.3351003666061530e+01  3.3950945876644127e+01  3.4476327975316948e+01  3.4937611011390210e+01  3.5343565106747675e+01  3.5701575517796812e+01  3.6017890003549297e+01  3.6297818462138743e+01  3.6545894162893561e+01  3.6766004243839561e+01  3.6961495661674448e+01  3.7135261531512192e+01  3.7289811774109943e+01  3.7427331171785532e+01  3.7549727287257099e+01  3.7658670189894103e+01  3.7755625533268507e+01  3.7841882213190452e+01  3.7918575587938754e+01  3.7986707047388208e+01  3.8047160563655581e+01  3.8100716733743923e+01  3.8148064727497349e+01  3.8189812476571248e+01  3.8226495377890082e+01  3.8258583734933538e+01  3.8286489119630637e+01  3.8310569804650918e+01  3.8331135388909821e+01  3.8348450716912602e+01  3.8362739174177825e+01  3.8374185425622514e+01  3.8382937650834606e+01  3.8389109319090792e+01  3.8392780537386294e+01  3.8393998996271094e+01  3.8392780530644991e+01  3.8389109305581961e+01  3.8382937630506028e+01  3.8374185398396655e+01  3.8362739139952502e+01  3.8348450675562283e+01  3.8331135340286799e+01  3.8310569748587199e+01  3.8286489055939597e+01  3.8258583663412011e+01  3.8226495298320629e+01  3.8189812388724654e+01  3.8148064631135142e+01  3.8100716628621164e+01  3.8047160449523432e+01  3.7986706923996998e+01  3.7918575455040511e+01  3.7841882070541885e+01  3.7755625380633461e+01  3.7658670027046313e+01  3.7549727113982364e+01  3.7427330987883735e+01  3.7289811579396734e+01  3.7135261325820416e+01  3.6961495444854812e+01  3.6766004015760963e+01  3.6545893923442691e+01  3.6297818211219166e+01  3.6017889741079415e+01  3.5701575243707083e+01  3.5343564820976994e+01  3.4937610713880694e+01  3.4476327666008025e+01  3.3950945555464813e+01  3.3351003332921422e+01  3.2663972175266238e+01  3.1874796207253070e+01  3.0965343347970929e+01  2.9913771114505153e+01  2.8693840692109696e+01  2.7274271824291191e+01  2.5618345175284176e+01  2.3684161971666658e+01  2.1426295065379051e+01  1.8799989973987433e+01  1.5769389763647517e+01  1.2320840085221270e+01  8.4800800828211216e+00  4.3273979084289982e+00  0.0000000000000000e+00  0.0000000000000000e+00  3.7434051277566511e+00  7.3682309954900891e+00  1.0775982175976051e+01  1.3900525788445945e+01  1.6709883740374657e+01  1.9200260635490309e+01  2.1387013169577539e+01  2.3296165604846234e+01  2.4958074792068384e+01  2.6403396193812767e+01  2.7660862196902279e+01  2.8756273248993139e+01  2.9712212677542041e+01  3.0548150006520110e+01  3.1280726005597579e+01  3.1924101688042203e+01  3.2490309218601332e+01  3.2989575326937661e+01  3.3430605880442073e+01  3.3820829677898054e+01  3.4166604026436936e