<?xml version="1.0"?>
<VTKFile type="UnstructuredGrid"  version="0.1"  >
<UnstructuredGrid>
<Piece  NumberOfPoints="10201" NumberOfCells="20000">
<Points>
<DataArray  type="Float64"  NumberOfComponents="3"  format="ascii">0 0 0  0.01 0 0  0.02 0 0  0.03 0 0  0.04 0 0  0.05 0 0  0.06 0 0  0.07000000000000001 0 0  0.08 0 0  0.09 0 0  0.1 0 0  0.11 0 0  0.12 0 0  0.13 0 0  0.14 0 0  0.15 0 0  0.16 0 0  0.17 0 0  0.18 0 0  0.19 0 0  0.2 0 0  0.21 0 0  0.22 0 0  0.23 0 0  0.24 0 0  0.25 0 0  0.26 0 0  0.27 0 0  0.28 0 0  0.29 0 0  0.3 0 0  0.31 0 0  0.32 0 0  0.33 0 0  0.34 0 0  0.35 0 0  0.36 0 0  0.37 0 0  0.38 0 0  0.39 0 0  0.4 0 0  0.41 0 0  0.42 0 0  0.43 0 0  0.44 0 0  0.45 0 0  0.46 0 0  0.47 0 0  0.48 0 0  0.49 0 0  0.5 0 0  0.51 0 0  0.52 0 0  0.53 0 0  0.54 0 0  0.55 0 0  0.5600000000000001 0 0  0.57 0 0  0.58 0 0  0.59 0 0  0.6 0 0  0.61 0 0  0.62 0 0  0.63 0 0  0.64 0 0  0.65 0 0  0.66 0 0  0.67 0 0  0.68 0 0  0.6899999999999999 0 0  0.7 0 0  0.71 0 0  0.72 0 0  0.73 0 0  0.74 0 0  0.75 0 0  0.76 0 0  0.77 0 0  0.78 0 0  0.79 0 0  0.8 0 0  0.8100000000000001 0 0  0.82 0 0  0.83 0 0  0.84 0 0  0.85 0 0  0.86 0 0  0.87 0 0  0.88 0 0  0.89 0 0  0.9 0 0  0.91 0 0  0.92 0 0  0.93 0 0  0.9399999999999999 0 0  0.95 0 0  0.96 0 0  0.97 0 0  0.98 0 0  0.99 0 0  1 0 0  0 0.01 0  0.01 0.01 0  0.02 0.01 0  0.03 0.01 0  0.04 0.01 0  0.05 0.01 0  0.06 0.01 0  0.07000000000000001 0.01 0  0.08 0.01 0  0.09 0.01 0  0.1 0.01 0  0.11 0.01 0  0.12 0.01 0  0.13 0.01 0  0.14 0.01 0  0.15 0.01 0  0.16 0.01 0  0.17 0.01 0  0.18 0.01 0  0.19 0.01 0  0.2 0.01 0  0.21 0.01 0  0.22 0.01 0  0.23 0.01 0  0.24 0.01 0  0.25 0.01 0  0.26 0.01 0  0.27 0.01 0  0.28 0.01 0  0.29 0.01 0  0.3 0.01 0  0.31 0.01 0  0.32 0.01 0  0.33 0.01 0  0.34 0.01 0  0.35 0.01 0  0.36 0.01 0  0.37 0.01 0  0.38 0.01 0  0.39 0.01 0  0.4 0.01 0  0.41 0.01 0  0.42 0.01 0  0.43 0.01 0  0.44 0.01 0  0.45 0.01 0  0.46 0.01 0  0.47 0.01 0  0.48 0.01 0  0.49 0.01 0  0.5 0.01 0  0.51 0.01 0  0.52 0.01 0  0.53 0.01 0  0.54 0.01 0  0.55 0.01 0  0.5600000000000001 0.01 0  0.57 0.01 0  0.58 0.01 0  0.59 0.01 0  0.6 0.01 0  0.61 0.01 0  0.62 0.01 0  0.63 0.01 0  0.64 0.01 0  0.65 0.01 0  0.66 0.01 0  0.67 0.01 0  0.68 0.01 0  0.6899999999999999 0.01 0  0.7 0.01 0  0.71 0.01 0  0.72 0.01 0  0.73 0.01 0  0.74 0.01 0  0.75 0.01 0  0.76 0.01 0  0.77 0.01 0  0.78 0.01 0  0.79 0.01 0  0.8 0.01 0  0.8100000000000001 0.01 0  0.82 0.01 0  0.83 0.01 0  0.84 0.01 0  0.85 0.01 0  0.86 0.01 0  0.87 0.01 0  0.88 0.01 0  0.89 0.01 0  0.9 0.01 0  0.91 0.01 0  0.92 0.01 0  0.93 0.01 0  0.9399999999999999 0.01 0  0.95 0.01 0  0.96 0.01 0  0.97 0.01 0  0.98 0.01 0  0.99 0.01 0  1 0.01 0  0 0.02 0  0.01 0.02 0  0.02 0.02 0  0.03 0.02 0  0.04 0.02 0  0.05 0.02 0  0.06 0.02 0  0.07000000000000001 0.02 0  0.08 0.02 0  0.09 0.02 0  0.1 0.02 0  0.11 0.02 0  0.12 0.02 0  0.13 0.02 0  0.14 0.02 0  0.15 0.02 0  0.16 0.02 0  0.17 0.02 0  0.18 0.02 0  0.19 0.02 0  0.2 0.02 0  0.21 0.02 0  0.22 0.02 0  0.23 0.02 0  0.24 0.02 0  0.25 0.02 0  0.26 0.02 0  0.27 0.02 0  0.28 0.02 0  0.29 0.02 0  0.3 0.02 0  0.31 0.02 0  0.32 0.02 0  0.33 0.02 0  0.34 0.02 0  0.35 0.02 0  0.36 0.02 0  0.37 0.02 0  0.38 0.02 0  0.39 0.02 0  0.4 0.02 0  0.41 0.02 0  0.42 0.02 0  0.43 0.02 0  0.44 0.02 0  0.45 0.02 0  0.46 0.02 0  0.47 0.02 0  0.48 0.02 0  0.49 0.02 0  0.5 0.02 0  0.51 0.02 0  0.52 0.02 0  0.53 0.02 0  0.54 0.02 0  0.55 0.02 0  0.5600000000000001 0.02 0  0.57 0.02 0  0.58 0.02 0  0.59 0.02 0  0.6 0.02 0  0.61 0.02 0  0.62 0.02 0  0.63 0.02 0  0.64 0.02 0  0.65 0.02 0  0.66 0.02 0  0.67 0.02 0  0.68 0.02 0  0.6899999999999999 0.02 0  0.7 0.02 0  0.71 0.02 0  0.72 0.02 0  0.73 0.02 0  0.74 0.02 0  0.75 0.02 0  0.76 0.02 0  0.77 0.02 0  0.78 0.02 0  0.79 0.02 0  0.8 0.02 0  0.8100000000000001 0.02 0  0.82 0.02 0  0.83 0.02 0  0.84 0.02 0  0.85 0.02 0  0.86 0.02 0  0.87 0.02 0  0.88 0.02 0  0.89 0.02 0  0.9 0.02 0  0.91 0.02 0  0.92 0.02 0  0.93 0.02 0  0.9399999999999999 0.02 0  0.95 0.02 0  0.96 0.02 0  0.97 0.02 0  0.98 0.02 0  0.99 0.02 0  1 0.02 0  0 0.03 0  0.01 0.03 0  0.02 0.03 0  0.03 0.03 0  0.04 0.03 0  0.05 0.03 0  0.06 0.03 0  0.07000000000000001 0.03 0  0.08 0.03 0  0.09 0.03 0  0.1 0.03 0  0.11 0.03 0  0.12 0.03 0  0.13 0.03 0  0.14 0.03 0  0.15 0.03 0  0.16 0.03 0  0.17 0.03 0  0.18 0.03 0  0.19 0.03 0  0.2 0.03 0  0.21 0.03 0  0.22 0.03 0  0.23 0.03 0  0.24 0.03 0  0.25 0.03 0  0.26 0.03 0  0.27 0.03 0  0.28 0.03 0  0.29 0.03 0  0.3 0.03 0  0.31 0.03 0  0.32 0.03 0  0.33 0.03 0  0.34 0.03 0  0.35 0.03 0  0.36 0.03 0  0.37 0.03 0  0.38 0.03 0  0.39 0.03 0  0.4 0.03 0  0.41 0.03 0  0.42 0.03 0  0.43 0.03 0  0.44 0.03 0  0.45 0.03 0  0.46 0.03 0  0.47 0.03 0  0.48 0.03 0  0.49 0.03 0  0.5 0.03 0  0.51 0.03 0  0.52 0.03 0  0.53 0.03 0  0.54 0.03 0  0.55 0.03 0  0.5600000000000001 0.03 0  0.57 0.03 0  0.58 0.03 0  0.59 0.03 0  0.6 0.03 0  0.61 0.03 0  0.62 0.03 0  0.63 0.03 0  0.64 0.03 0  0.65 0.03 0  0.66 0.03 0  0.67 0.03 0  0.68 0.03 0  0.6899999999999999 0.03 0  0.7 0.03 0  0.71 0.03 0  0.72 0.03 0  0.73 0.03 0  0.74 0.03 0  0.75 0.03 0  0.76 0.03 0  0.77 0.03 0  0.78 0.03 0  0.79 0.03 0  0.8 0.03 0  0.8100000000000001 0.03 0  0.82 0.03 0  0.83 0.03 0  0.84 0.03 0  0.85 0.03 0  0.86 0.03 0  0.87 0.03 0  0.88 0.03 0  0.89 0.03 0  0.9 0.03 0  0.91 0.03 0  0.92 0.03 0  0.93 0.03 0  0.9399999999999999 0.03 0  0.95 0.03 0  0.96 0.03 0  0.97 0.03 0  0.98 0.03 0  0.99 0.03 0  1 0.03 0  0 0.04 0  0.01 0.04 0  0.02 0.04 0  0.03 0.04 0  0.04 0.04 0  0.05 0.04 0  0.06 0.04 0  0.07000000000000001 0.04 0  0.08 0.04 0  0.09 0.04 0  0.1 0.04 0  0.11 0.04 0  0.12 0.04 0  0.13 0.04 0  0.14 0.04 0  0.15 0.04 0  0.16 0.04 0  0.17 0.04 0  0.18 0.04 0  0.19 0.04 0  0.2 0.04 0  0.21 0.04 0  0.22 0.04 0  0.23 0.04 0  0.24 0.04 0  0.25 0.04 0  0.26 0.04 0  0.27 0.04 0  0.28 0.04 0  0.29 0.04 0  0.3 0.04 0  0.31 0.04 0  0.32 0.04 0  0.33 0.04 0  0.34 0.04 0  0.35 0.04 0  0.36 0.04 0  0.37 0.04 0  0.38 0.04 0  0.39 0.04 0  0.4 0.04 0  0.41 0.04 0  0.42 0.04 0  0.43 0.04 0  0.44 0.04 0  0.45 0.04 0  0.46 0.04 0  0.47 0.04 0  0.48 0.04 0  0.49 0.04 0  0.5 0.04 0  0.51 0.04 0  0.52 0.04 0  0.53 0.04 0  0.54 0.04 0  0.55 0.04 0  0.5600000000000001 0.04 0  0.57 0.04 0  0.58 0.04 0  0.59 0.04 0  0.6 0.04 0  0.61 0.04 0  0.62 0.04 0  0.63 0.04 0  0.64 0.04 0  0.65 0.04 0  0.66 0.04 0  0.67 0.04 0  0.68 0.04 0  0.6899999999999999 0.04 0  0.7 0.04 0  0.71 0.04 0  0.72 0.04 0  0.73 0.04 0  0.74 0.04 0  0.75 0.04 0  0.76 0.04 0  0.77 0.04 0  0.78 0.04 0  0.79 0.04 0  0.8 0.04 0  0.8100000000000001 0.04 0  0.82 0.04 0  0.83 0.04 0  0.84 0.04 0  0.85 0.04 0  0.86 0.04 0  0.87 0.04 0  0.88 0.04 0  0.89 0.04 0  0.9 0.04 0  0.91 0.04 0  0.92 0.04 0  0.93 0.04 0  0.9399999999999999 0.04 0  0.95 0.04 0  0.96 0.04 0  0.97 0.04 0  0.98 0.04 0  0.99 0.04 0  1 0.04 0  0 0.05 0  0.01 0.05 0  0.02 0.05 0  0.03 0.05 0  0.04 0.05 0  0.05 0.05 0  0.06 0.05 0  0.07000000000000001 0.05 0  0.08 0.05 0  0.09 0.05 0  0.1 0.05 0  0.11 0.05 0  0.12 0.05 0  0.13 0.05 0  0.14 0.05 0  0.15 0.05 0  0.16 0.05 0  0.17 0.05 0  0.18 0.05 0  0.19 0.05 0  0.2 0.05 0  0.21 0.05 0  0.22 0.05 0  0.23 0.05 0  0.24 0.05 0  0.25 0.05 0  0.26 0.05 0  0.27 0.05 0  0.28 0.05 0  0.29 0.05 0  0.3 0.05 0  0.31 0.05 0  0.32 0.05 0  0.33 0.05 0  0.34 0.05 0  0.35 0.05 0  0.36 0.05 0  0.37 0.05 0  0.38 0.05 0  0.39 0.05 0  0.4 0.05 0  0.41 0.05 0  0.42 0.05 0  0.43 0.05 0  0.44 0.05 0  0.45 0.05 0  0.46 0.05 0  0.47 0.05 0  0.48 0.05 0  0.49 0.05 0  0.5 0.05 0  0.51 0.05 0  0.52 0.05 0  0.53 0.05 0  0.54 0.05 0  0.55 0.05 0  0.5600000000000001 0.05 0  0.57 0.05 0  0.58 0.05 0  0.59 0.05 0  0.6 0.05 0  0.61 0.05 0  0.62 0.05 0  0.63 0.05 0  0.64 0.05 0  0.65 0.05 0  0.66 0.05 0  0.67 0.05 0  0.68 0.05 0  0.6899999999999999 0.05 0  0.7 0.05 0  0.71 0.05 0  0.72 0.05 0  0.73 0.05 0  0.74 0.05 0  0.75 0.05 0  0.76 0.05 0  0.77 0.05 0  0.78 0.05 0  0.79 0.05 0  0.8 0.05 0  0.8100000000000001 0.05 0  0.82 0.05 0  0.83 0.05 0  0.84 0.05 0  0.85 0.05 0  0.86 0.05 0  0.87 0.05 0  0.88 0.05 0  0.89 0.05 0  0.9 0.05 0  0.91 0.05 0  0.92 0.05 0  0.93 0.05 0  0.9399999999999999 0.05 0  0.95 0.05 0  0.96 0.05 0  0.97 0.05 0  0.98 0.05 0  0.99 0.05 0  1 0.05 0  0 0.06 0  0.01 0.06 0  0.02 0.06 0  0.03 0.06 0  0.04 0.06 0  0.05 0.06 0  0.06 0.06 0  0.07000000000000001 0.06 0  0.08 0.06 0  0.09 0.06 0  0.1 0.06 0  0.11 0.06 0  0.12 0.06 0  0.13 0.06 0  0.14 0.06 0  0.15 0.06 0  0.16 0.06 0  0.17 0.06 0  0.18 0.06 0  0.19 0.06 0  0.2 0.06 0  0.21 0.06 0  0.22 0.06 0  0.23 0.06 0  0.24 0.06 0  0.25 0.06 0  0.26 0.06 0  0.27 0.06 0  0.28 0.06 0  0.29 0.06 0  0.3 0.06 0  0.31 0.06 0  0.32 0.06 0  0.33 0.06 0  0.34 0.06 0  0.35 0.06 0  0.36 0.06 0  0.37 0.06 0  0.38 0.06 0  0.39 0.06 0  0.4 0.06 0  0.41 0.06 0  0.42 0.06 0  0.43 0.06 0  0.44 0.06 0  0.45 0.06 0  0.46 0.06 0  0.47 0.06 0  0.48 0.06 0  0.49 0.06 0  0.5 0.06 0  0.51 0.06 0  0.52 0.06 0  0.53 0.06 0  0.54 0.06 0  0.55 0.06 0  0.5600000000000001 0.06 0  0.57 0.06 0  0.58 0.06 0  0.59 0.06 0  0.6 0.06 0  0.61 0.06 0  0.62 0.06 0  0.63 0.06 0  0.64 0.06 0  0.65 0.06 0  0.66 0.06 0  0.67 0.06 0  0.68 0.06 0  0.6899999999999999 0.06 0  0.7 0.06 0  0.71 0.06 0  0.72 0.06 0  0.73 0.06 0  0.74 0.06 0  0.75 0.06 0  0.76 0.06 0  0.77 0.06 0  0.78 0.06 0  0.79 0.06 0  0.8 0.06 0  0.8100000000000001 0.06 0  0.82 0.06 0  0.83 0.06 0  0.84 0.06 0  0.85 0.06 0  0.86 0.06 0  0.87 0.06 0  0.88 0.06 0  0.89 0.06 0  0.9 0.06 0  0.91 0.06 0  0.92 0.06 0  0.93 0.06 0  0.9399999999999999 0.06 0  0.95 0.06 0  0.96 0.06 0  0.97 0.06 0  0.98 0.06 0  0.99 0.06 0  1 0.06 0  0 0.07000000000000001 0  0.01 0.07000000000000001 0  0.02 0.07000000000000001 0  0.03 0.07000000000000001 0  0.04 0.07000000000000001 0  0.05 0.07000000000000001 0  0.06 0.07000000000000001 0  0.07000000000000001 0.07000000000000001 0  0.08 0.07000000000000001 0  0.09 0.07000000000000001 0  0.1 0.07000000000000001 0  0.11 0.07000000000000001 0  0.12 0.07000000000000001 0  0.13 0.07000000000000001 0  0.14 0.07000000000000001 0  0.15 0.07000000000000001 0  0.16 0.07000000000000001 0  0.17 0.0700
[...]
<PointData  Scalars="f_17"> 
<DataArray  type="Float64"  Name="f_17"  format="ascii">0.0000000000000000e+00  5.0000000000000000e+01  5.0000000000000000e+01  5.0000000000000000e+01  5.0000000000000000e+01  5.0000000000000000e+01  5.0000000000000000e+01  5.0000000000000000e+01  5.0000000000000000e+01  5.0000000000000000e+01  5.0000000000000000e+01  5.0000000000000000e+01  5.0000000000000000e+01  5.0000000000000000e+01  5.0000000000000000e+01  5.0000000000000000e+01  5.0000000000000000e+01  5.0000000000000000e+01  5.0000000000000000e+01  5.0000000000000000e+01  5.0000000000000000e+01  5.0000000000000000e+01  5.0000000000000000e+01  5.0000000000000000e+01  5.0000000000000000e+01  5.0000000000000000e+01  5.0000000000000000e+01  5.0000000000000000e+01  5.0000000000000000e+01  5.0000000000000000e+01  5.0000000000000000e+01  5.0000000000000000e+01  5.0000000000000000e+01  5.0000000000000000e+01  5.0000000000000000e+01  5.0000000000000000e+01  5.0000000000000000e+01  5.0000000000000000e+01  5.0000000000000000e+01  5.0000000000000000e+01  5.0000000000000000e+01  5.0000000000000000e+01  5.0000000000000000e+01  5.0000000000000000e+01  5.0000000000000000e+01  5.0000000000000000e+01  5.0000000000000000e+01  5.0000000000000000e+01  5.0000000000000000e+01  5.0000000000000000e+01  5.0000000000000000e+01  5.0000000000000000e+01  5.0000000000000000e+01  5.0000000000000000e+01  5.0000000000000000e+01  5.0000000000000000e+01  5.0000000000000000e+01  5.0000000000000000e+01  5.0000000000000000e+01  5.0000000000000000e+01  5.0000000000000000e+01  5.0000000000000000e+01  5.0000000000000000e+01  5.0000000000000000e+01  5.0000000000000000e+01  5.0000000000000000e+01  5.0000000000000000e+01  5.0000000000000000e+01  5.0000000000000000e+01  5.0000000000000000e+01  5.0000000000000000e+01  5.0000000000000000e+01  5.0000000000000000e+01  5.0000000000000000e+01  5.0000000000000000e+01  5.0000000000000000e+01  5.0000000000000000e+01  5.0000000000000000e+01  5.0000000000000000e+01  5.0000000000000000e+01  5.0000000000000000e+01  5.0000000000000000e+01  5.0000000000000000e+01  5.0000000000000000e+01  5.0000000000000000e+01  5.0000000000000000e+01  5.0000000000000000e+01  5.0000000000000000e+01  5.0000000000000000e+01  5.0000000000000000e+01  5.0000000000000000e+01  5.0000000000000000e+01  5.0000000000000000e+01  5.0000000000000000e+01  5.0000000000000000e+01  5.0000000000000000e+01  5.0000000000000000e+01  5.0000000000000000e+01  5.0000000000000000e+01  5.0000000000000000e+01  0.0000000000000000e+00  0.0000000000000000e+00  2.4969877312107172e+01  3.5193420567958377e+01  3.9670103161246246e+01  4.2082388597385879e+01  4.3566852342306625e+01  4.4563504601609367e+01  4.5274058079745615e+01  4.5803088422836936e+01  4.6209982195626282e+01  4.6530889975089586e+01  4.6789051042634732e+01  4.7000074726805209e+01  4.7174830244575695e+01  4.7321117592476206e+01  4.7444679039197482e+01  4.7549835679529572e+01  4.7639901572287691e+01  4.7717461045400945e+01  4.7784559112407173e+01  4.7842835161366487e+01  4.7893618687027121e+01  4.7937999064450374e+01  4.7976877218263894e+01  4.8011004440229122e+01  4.8041011936554966e+01  4.8067433590089905e+01  4.8090723689583157e+01  4.8111270879619681e+01  4.8129409240225698e+01  4.8145427163449106e+01  4.8159574522394578e+01  4.8172068504501674e+01  4.8183098390766126e+01  4.8192829496278392e+01  4.8201406438118049e+01  4.8208955859600465e+01  4.8215588711801828e+01  4.8221402171842776e+01  4.8226481260886651e+01  4.8230900211980185e+01  4.8234723627827705e+01  4.8238007460678290e+01  4.8240799840220063e+01  4.8243141770342795e+01  4.8245067711564928e+01  4.8246606062603455e+01  4.8247779551830241e+01  4.8248605547067712e+01  4.8249096290232444e+01  4.8249259061645844e+01  4.8249096277327247e+01  4.8248605521212674e+01  4.8247779512937065e+01  4.8246606010540710e+01  4.8245067646159463e+01  4.8243141691381624e+01  4.8240799747452591e+01  4.8238007353819079e+01  4.8234723506559469e+01  4.8230900075957507e+01  4.8226481109739673e+01  4.8221402005181638e+01  4.8215588529220987e+01  4.8208955660683756e+01  4.8201406222443673e+01  4.8192829263424471e+01  4.8183098140316119e+01  4.8172068236049824e+01  4.8159574235552078e+01  4.8145426857849692e+01  4.8129408915531378e+01  4.8111270535526387e+01  4.8090723325826360e+01  4.8067433206449891e+01  4.8041011532861852e+01  4.8011004016367416e+01  4.7976876774176851e+01  4.7937998600143800e+01  4.7893618202572355e+01  4.7842834656902745e+01  4.7784558588143760e+01  4.7717460501618007e+01  4.7639901009336086e+01  4.7549835097830012e+01  4.7444678439238587e+01  4.7321116974811183e+01  4.7174829609817500e+01  4.7000074075620219e+01  4.6789050375734398e+01  4.6530889293219388e+01  4.6209981499550551e+01  4.5803087713317979e+01  4.5274057357511730e+01  4.4563503867300852e+01  4.3566851596367734e+01  4.2082387839804014e+01  3.9670102390760924e+01  3.5193419778996287e+01  2.4969876479607137e+01  0.0000000000000000e+00  0.0000000000000000e+00  1.4686203102900610e+01  2.4879738455301297e+01  3.1104712192200328e+01  3.5002306673574424e+01  3.7588762071511532e+01  3.9399548515574175e+01  4.0723595479434991e+01  4.1725624391702254e+01  4.2504934724473458e+01  4.3124432427774089e+01  4.3625701304561225e+01  4.4037245180117921e+01  4.4379216574102976e+01  4.4666247737471771e+01  4.4909210322865590e+01  4.5116345740576335e+01  4.5294012622815444e+01  4.5447193934281181e+01  4.5579848950198411e+01  4.5695162587306910e+01  4.5795725284646700e+01  4.5883664941114063e+01  4.5960745149181619e+01  4.6028439340122965e+01  4.6087987451282281e+01  4.6140439735355550e+01  4.6186690989448749e+01  4.6227507561820772e+01  4.6263548854289105e+01  4.6295384586858354e+01  4.6323508768570896e+01  4.6348351085313929e+01  4.6370286244733514e+01  4.6389641692347872e+01  4.6406704018886508e+01  4.6421724308030910e+01  4.6434922619906146e+01  4.6446491764439749e+01  4.6456600486867089e+01  4.6465396162888688e+01  4.6473007081571168e+01  4.6479544378747917e+01  4.6485103671474164e+01  4.6489766434307029e+01  4.6493601150263515e+01  4.6496664262842813e+01  4.6499000950157217e+01  4.6500645737742943e+01  4.6501622962811609e+01  4.6501947099398237e+01  4.6501622950911894e+01  4.6500645713901825e+01  4.6499000914292139e+01  4.6496664214830965e+01  4.6493601089943013e+01  4.6489766361478665e+01  4.6485103585903801e+01  4.6479544280168781e+01  4.6473006969686800e+01  4.6465396037376124e+01  4.6456600347380864e+01  4.6446491610615411e+01  4.6434922451364628e+01  4.6421724124383246e+01  4.6406703819738112e+01  4.6389641477303982e+01  4.6370286013404026e+01  4.6348350837318435e+01  4.6323508503543934e+01  4.6295384304454920e+01  4.6263548554189363e+01  4.6227507243735104e+01  4.6186690653122682e+01  4.6140439380574229e+01  4.6087987077874487e+01  4.6028438947964943e+01  4.5960744738199907e+01  4.5883664511288735e+01  4.5795724836012845e+01  4.5695162119955640e+01  4.5579848464277539e+01  4.5447193429994215e+01  4.5294012100419693e+01  4.5116345200379769e+01  4.4909209765222613e+01  4.4666247162776607e+01  4.4379215982781716e+01  4.4037244572618185e+01  4.3625700681337968e+01  4.3124431789272599e+01  4.2504934071105154e+01  4.1725623723812234e+01  4.0723594797253902e+01  3.9399547819141794e+01  3.7588761360544837e+01  3.5002305947221778e+01  3.1104711448592905e+01  2.4879737691159246e+01  1.4686202318324359e+01  0.0000000000000000e+00  0.0000000000000000e+00  1.0149619512208233e+01  1.8535077376693362e+01  2.4730272242287839e+01  2.9157802612710572e+01  3.2349734658550261e+01  3.4704620516897329e+01  3.6486577958873589e+01  3.7866967883049838e+01  3.8958337495781521e+01  3.9836342254539289e+01  4.0553168716514428e+01  4.1145733090724455e+01  4.1640767485398051e+01  4.2058045390832625e+01  4.2412475977344691e+01  4.2715495846470134e+01  4.2976014466361981e+01  4.3201069689872874e+01  4.3396290915150772e+01  4.3566232059399908e+01  4.3714614781700917e+01  4.3844508765344287e+01  4.3958467158689494e+01  4.4058629599186759e+01  4.4146801483781275e+01  4.4224515614331601e+01  4.4293080612361180e+01  4.4353619293609412e+01  4.4407099345928792e+01  4.4454358050741611e+01  4.4496122353382489e+01  4.4533025270710745e+01  4.4565619390990982e+01  4.4594388047496423e+01  4.4619754617059208e+01  4.4642090296205566e+01  4.4661720632270786e+01  4.4678931029005369e+01  4.4693971401318542e+01  4.4707060118775580e+01  4.4718387349917094e+01  4.4728117897648204e+01  4.4736393598535322e+01  4.4743335344845946e+01  4.4749044776815040e+01  4.4753605683323521e+01  4.4757085141479799e+01  4.4759534419135463e+01  4.4760989658858911e+01  4.4761472357098491e+01  4.4760989647991899e+01  4.4759534397362010e+01  4.4757085108721711e+01  4.4753605639464396e+01  4.4749044721701608e+01  4.4743335278289656e+01  4.4736393520314280e+01  4.4728117807509761e+01  4.4718387247580310e+01  4.4707060003934544e+01  4.4693971273645680e+01  4.4678930888155001e+01  4.4661720477883279e+01  4.4642090127911473e+01  4.4619754434483731e+01  4.4594387850263878e+01  4.4565619178729499e+01  4.4533025043057016e+01  4.4496122109986409e+01  4.4454357791271207e+01  4.4407099070074537e+01  4.4353619001088724e+01  4.4293080302922498e+01  4.4224515287758209e+01  4.4146801139894755e+01  4.4058629237849729e+01  4.3958466779807935e+01  4.3844508368869135e+01  4.3714614367629061e+01  4.3566231627773682e+01  4.3396290466057287e+01  4.3201069223441664e+01  4.2976013982761145e+01  4.2715495345901573e+01  4.2412475460037420e+01  4.2058044857033707e+01  4.1640766935361839e+01  4.1145732524698502e+01  4.0553168134721787e+01  3.9836341657156012e+01  3.8958336882907687e+01  3.7866967254670925e+01  3.6486577314808166e+01  3.4704619856724172e+01  3.2349733981507391e+01  2.9157801917573504e+01  2.4730271527318390e+01  1.8535076640067668e+01  1.0149618753325120e+01  0.0000000000000000e+00  0.0000000000000000e+00  7.6777763155047412e+00  1.4518481357127079e+01  2.0124523834964648e+01  2.4522615590959870e+01  2.7926534010341292e+01  3.0569561521222795e+01  3.2644044067288526e+01  3.4294105613887311e+01  3.5624344229043828e+01  3.6710293731929148e+01  3.7606884584401286e+01  3.8354557578147165e+01  3.8983514141595549e+01  3.9516642350084133e+01  3.9971537573639196e+01  4.0361910831674884e+01  4.0698582264110499e+01  4.0990191202956126e+01  4.1243710509416360e+01  4.1464824044166470e+01  4.1658207205410328e+01  4.1827737942294362e+01  4.1976657284205913e+01  4.2107692776378201e+01  4.2223154352192559e+01  4.2325009504223679e+01  4.2414942749878406e+01  4.2494403067399766e+01  4.2564642033941112e+01  4.2626744715127863e+01  4.2681654857444670e+01  4.2730195567684987e+01  4.2773086390650654e+01  4.2810957491428375e+01  4.2844361493583641e+01  4.2873783406436203e+01  4.2899648983783656e+01  4.2922331786170318e+01  4.2942159164034585e+01  4.2959417336093068e+01  4.2974355703365831e+01  4.2987190512238897e+01  4.2998107958323487e+01  4.3007266805407021e+01  4.3014800579580189e+01  4.3020819386950606e+01  4.3025411393658693e+01  4.3028643998752798e+01  4.3030564723505101e+01  4.3031201834662156e+01  4.3030564713691405e+01  4.3028643979087626e+01  4.3025411364066741e+01  4.3020819347320078e+01  4.3014800529763484e+01  4.3007266745222843e+01  4.2998107887558348e+01  4.2987190430649612e+01  4.2974355610681819e+01  4.2959417232019661e+01  4.2942159048255931e+01  4.2922331658352924e+01  4.2899648843580216e+01  4.2873783253489577e+01  4.2844361327530940e+01  4.2810957311905248e+01  4.2773086197295449e+01  4.2730195360143426e+01  4.2681654635374144e+01  4.2626744478201545e+01  4.2564641781852288e+01  4.2494402799865711e+01  4.2414942466643801e+01  4.2325009205063971e+01  4.2223154036916803e+01  4.2107692444831144e+01  4.1976656936269485e+01  4.1827737577888492e+01  4.1658206824492773e+01  4.1464823646731773e+01  4.1243710095493562e+01  4.0990190772605317e+01  4.0698581817417519e+01  4.0361910368744851e+01  3.9971537094588072e+01  3.9516641855027743e+01  3.8983513630636111e+01  3.8354557051357062e+01  3.7606884041802381e+01  3.6710293173467527e+01  3.5624343654558331e+01  3.4294105023069989e+01  3.2644043459635029e+01  3.0569560895972387e+01  2.7926533366409576e+01  2.4522614926886508e+01  2.0124523148934024e+01  1.4518480647126148e+01  7.6777755793961662e+00  0.0000000000000000e+00  0.0000000000000000e+00  6.1342093620747660e+00  1.1813932646899758e+01  1.6755733898506367e+01  2.0883411356483151e+01  2.4258338733693080e+01  2.6997373129144250e+01  2.9222470198636017e+01  3.1039854554579463e+01  3.2535262107683323e+01  3.3775645168589961e+01  3.4812660998955259e+01  3.5686117124207662e+01  3.6426827193914001e+01  3.7058820567484688e+01  3.7601002031597488e+01  3.8068384425197586e+01  3.8473002309744167e+01  3.8824591374229456e+01  3.9131096677308889e+01  3.9399055713444170e+01  3.9633889529280388e+01  3.9840125865180006e+01  4.0021571670325613e+01  4.0181447610430112e+01  4.0322493807595919e+01  4.0447053627153132e+01  4.0557140576641423e+01  4.0654492111049855e+01  4.0740613208367925e+01  4.0816811893831776e+01  4.0884228381922171e+01  4.0943859123977070e+01  4.0996576761879389e+01  4.1043146770020194e+01  4.1084241400818740e+01  4.1120451420556321e+01  4.1152296022660813e+01  4.1180231227861960e+01  4.1204657019626623e+01  4.1225923415086037e+01  4.1244335633355725e+01  4.1260158492498022e+01  4.1273620141697286e+01  4.1284915215197096e+01  4.1294207478185434e+01  4.1301632021312130e+01  4.1307297049266360e+01  4.1311285299333377e+01  4.1313655117689741e+01  4.1314441214057652e+01  4.1313655108944154e+01  4.1311285281805212e+01  4.1307297022882061e+01  4.1301631985962153e+01  4.1294207433725582e+01  4.1284915161449767e+01  4.1273620078453490e+01  4.1260158419519449e+01  4.1244335550377187e+01  4.1225923321818378e+01  4.1204656915759642e+01  4.1180231113067883e+01  4.1152295896597728e+01  4.1120451282872189e+01  4.1084241251155092e+01  4.1043146608016279e+01  4.0996576587176150e+01  4.0943858936221581e+01  4.0884228180771480e+01  4.0816811678956917e+01  4.0740612979457829e+01  4.0654491867814876e+01  4.0557140318816366e+01  4.0447053354500305e+01  4.0322493519907290e+01  4.0181447307528884e+01  4.0021571352067234e+01  3.9840125531452351e+01  3.9633889180002740e+01  3.9399055348565348e+01  3.9131096296804067e+01  3.8824590978095578e+01  3.8473001897993790e+01  3.8068383997850951e+01  3.7601001588672531e+01  3.7058820108984754e+01  3.6426826719812823e+01  3.5686116634431123e+01  3.4812660493359409e+01  3.3775644646934431e+01  3.2535261569599484e+01  3.1039853999532365e+01  2.9222469625879892e+01  2.6997372537672820e+01  2.4258338122189933e+01  2.0883410723283546e+01  1.6755733241582529e+01  1.1813931963846109e+01  6.1342086499678370e+00  0.0000000000000000e+00  0.0000000000000000e+00  5.0790171535684543e+00  9.8861783222833157e+00  1.4225675581613551e+01  1.8007340221295983e+01  2.1228831095908788e+01  2.3939424256352133e+01  2.6208921923401125e+01  2.8108829261835162e+01  2.9703603711650430e+01  3.1047865268501113e+01  3.2186480953658105e+01  3.3155767141012163e+01  3.3984958463629624e+01  3.4697586568106367e+01  3.5312650614045488e+01  3.5845565084025907e+01  3.6308909465060687e+01  3.6713014692693875e+01  3.7066420051886226e+01  3.7376229196153574e+01  3.7648388298569117e+01  3.7887904282295089e+01  3.8099016921018823e+01  3.8285335332591238e+01  3.8449946878857375e+01  3.8595504577959872e+01  3.8724297694622500e+01  3.8838309086624605e+01  3.8939262064170030e+01  3.9028658896443638e+01  3.9107812626293850e+01  3.9177873492372846e+01  3.9239850980480696e+01  3.9294632311679337e+01  3.9342998008611595e+01  3.9385635051914882e+01  3.9423148037060507e+01  3.9456068661904588e+01  3.9484863811808289e+01  3.9509942458653192e+01  3.9531661549594041e+01  3.9550331028774117e+01  3.9566218108786188e+01  3.9579550887084764e+01  3.9590521384812867e+01  3.9599288070792277e+01  3.9605977921094890e+01  3.9610688054147488e+01  3.9613486972303107e+01  3.9614415432890532e+01  3.9613486964634987e+01  3.9610688038774398e+01  3.9605977897943596e+01  3.9599288039753752e+01  3.9590521345743461e+01  3.9579550839807567e+01  3.9566218053092669e+01  3.9550330964426614e+01  3.9531661476327741e+01  3.9509942376179033e+01  3.9484863719815827e+01  3.9456068560065439e+01  3.9423147925031550e+01  3.9385634929342103e+01  3.9342997875133804e+01  3.9294632166932097e+01  3.9239850824100195e+01  3.9177873324000053e+01  3.9107812445578219e+01  3.9028658703047128e+01  3.8939261857770617e+01  3.8838308866919540e+01  3.8724297461331204e+01  3.8595504330826650e+01  3.8449946617653168e+01  3.8285335057115020e+01  3.8099016631098060e+01  3.7887903977785328e+01  3.7648387979352712e+01  3.7376228862136983e+01  3.7066419702996299e+01  3.6713014328872305e+01  3.6308909086257316e+01  3.5845564690189626e+01  3.5312650205113442e+01  3.4697586143990620e+01  3.3984958024201177e+01  3.3155766686081726e+01  3.2186480482953534e+01  3.1047864781640868e+01  2.9703603208112465e+01  2.8108828740921084e+01  2.6208921384196341e+01  2.3939423697682631e+01  2.1228830516297787e+01  1.8007339618923240e+01  1.4225674954274050e+01  9.8861776673244091e+00  5.0790164677620453e+00  0.0000000000000000e+00  0.0000000000000000e+00  4.3105924776071607e+00  8.4464996902452558e+00  1.2270546776271477e+01  1.5702476180772145e+01  1.8716578853008492e+01  2.1326538571537014e+01  2.3568240881877585e+01  2.5486467914538270e+01  2.7126673365474559e+01  2.8530781329767819e+01  2.9735535124173563e+01  3.0772237543664463e+01  3.1667148410515264e+01  3.2442129609831468e+01  3.3115330959525522e+01  3.3701824361656151e+01  3.4214152925957393e+01  3.4662790233169908e+01  3.5056517181166647e+01  3.5402728061151066e+01  3.5707677953975043e+01  3.5976682408271074e+01  3.6214278726783355e+01  3.6424356529929483e+01  3.6610263782698418e+01  3.6774893221166394e+01  3.6920753095262761e+01  3.7050025327863636e+01  3.7164613543280659e+01  3.7266182908449913e+01  3.7356193329518817e+01  3.7435927231831833e+01  3.7506512903859367e+01  3.7568944190635186e+01  3.7624097168225937e+01  3.7672744308660135e+01  3.7715566547629507e+01  3.7753163589726867e+01  3.7786062723813274e+01  3.7814726371042205e+01  3.7839558547573070e+01  3.7860910391084019e+01  3.7879084873288164e+01  3.7894340798533655e+01  3.7906896170246533e+01  3.7916930991682300e+01  3.7924589554555894e+01  3.7929982258111082e+01  3.7933186991657237e+01  3.7934250105183288e+01  3.7933186985071124e+01  3.7929982244901638e+01  3.7924589534648916e+01  3.7916930964967385e+01  3.7906896136578027e+01  3.7894340757732216e+01  3.7879084825142264e+01  3.7860910335352280e+01  3.7839558483986416e+01  3.7814726299306429e+01  3.7786062643612176e+01  3.7753163500725343e+01  3.7715566449476874e+01  3.7672744200993883e+01  3.7624097050675374e+01  3.7568944062825189e+01  3.7506512765414413e+01  3.7435927082379941e+01  3.7356193168695171e+01  3.7266182735900870e+01  3.7164613358667097e+01  3.7050025130864128e+01  3.6920752885576462e+01  3.6774892998515448e+01  3.6610263546829614e+01  3.6424356280615413e+01  3.6214278463822666e+01  3.5976682131487799e+01  3.5707677663216927e+01  3.5402727756286552e+01  3.5056516862080706e+01  3.4662789899758110e+01  3.4214152578118515e+01  3.3701823999282688e+01  3.3115330582492291e+01  3.2442129217981780e+01  3.1667148003644439e+01  3.0772237121500403e+01  2.9735534686354427e+01  2.8530780875815875e+01  2.7126672894766685e+01  2.5486467426272625e+01  2.3568240375037274e+01  2.1326538044851105e+01  1.8716578304911636e+01  1.5702475609362475e+01  1.2270546179262912e+01  8.4464990649050549e+00  4.3105918206674545e+00  0.0000000000000000e+00  0.0000000000000000e+00  3.7244613903935235e+00  7.3303785304662288e+00  1.0719290906779996e+01  1.3825100122681640e+01  1.6615862002111264e+01  1.9087814317055301e+01  2.1256346010073681e+01  2.3147512504316634e+01  2.4791700571762394e+01  2.6219594214403660e+01  2.7459952847755879e+01  2.8538602322674322e+01  2.9478149644659155e+01  3.0298086206740376e+01  3.1015072771211194e+01  3.1643288416808655e+01  3.2194781412776983e+01  3.2679792615363510e+01  3.3107040040367927e+01  3.3483962672844598e+01  3.3816926075859122e