<?xml version="1.0"?>
<VTKFile type="UnstructuredGrid"  version="0.1"  >
<UnstructuredGrid>
<Piece  NumberOfPoints="10201" NumberOfCells="20000">
<Points>
<DataArray  type="Float64"  NumberOfComponents="3"  format="ascii">0 0 0  0.01 0 0  0.02 0 0  0.03 0 0  0.04 0 0  0.05 0 0  0.06 0 0  0.07000000000000001 0 0  0.08 0 0  0.09 0 0  0.1 0 0  0.11 0 0  0.12 0 0  0.13 0 0  0.14 0 0  0.15 0 0  0.16 0 0  0.17 0 0  0.18 0 0  0.19 0 0  0.2 0 0  0.21 0 0  0.22 0 0  0.23 0 0  0.24 0 0  0.25 0 0  0.26 0 0  0.27 0 0  0.28 0 0  0.29 0 0  0.3 0 0  0.31 0 0  0.32 0 0  0.33 0 0  0.34 0 0  0.35 0 0  0.36 0 0  0.37 0 0  0.38 0 0  0.39 0 0  0.4 0 0  0.41 0 0  0.42 0 0  0.43 0 0  0.44 0 0  0.45 0 0  0.46 0 0  0.47 0 0  0.48 0 0  0.49 0 0  0.5 0 0  0.51 0 0  0.52 0 0  0.53 0 0  0.54 0 0  0.55 0 0  0.5600000000000001 0 0  0.57 0 0  0.58 0 0  0.59 0 0  0.6 0 0  0.61 0 0  0.62 0 0  0.63 0 0  0.64 0 0  0.65 0 0  0.66 0 0  0.67 0 0  0.68 0 0  0.6899999999999999 0 0  0.7 0 0  0.71 0 0  0.72 0 0  0.73 0 0  0.74 0 0  0.75 0 0  0.76 0 0  0.77 0 0  0.78 0 0  0.79 0 0  0.8 0 0  0.8100000000000001 0 0  0.82 0 0  0.83 0 0  0.84 0 0  0.85 0 0  0.86 0 0  0.87 0 0  0.88 0 0  0.89 0 0  0.9 0 0  0.91 0 0  0.92 0 0  0.93 0 0  0.9399999999999999 0 0  0.95 0 0  0.96 0 0  0.97 0 0  0.98 0 0  0.99 0 0  1 0 0  0 0.01 0  0.01 0.01 0  0.02 0.01 0  0.03 0.01 0  0.04 0.01 0  0.05 0.01 0  0.06 0.01 0  0.07000000000000001 0.01 0  0.08 0.01 0  0.09 0.01 0  0.1 0.01 0  0.11 0.01 0  0.12 0.01 0  0.13 0.01 0  0.14 0.01 0  0.15 0.01 0  0.16 0.01 0  0.17 0.01 0  0.18 0.01 0  0.19 0.01 0  0.2 0.01 0  0.21 0.01 0  0.22 0.01 0  0.23 0.01 0  0.24 0.01 0  0.25 0.01 0  0.26 0.01 0  0.27 0.01 0  0.28 0.01 0  0.29 0.01 0  0.3 0.01 0  0.31 0.01 0  0.32 0.01 0  0.33 0.01 0  0.34 0.01 0  0.35 0.01 0  0.36 0.01 0  0.37 0.01 0  0.38 0.01 0  0.39 0.01 0  0.4 0.01 0  0.41 0.01 0  0.42 0.01 0  0.43 0.01 0  0.44 0.01 0  0.45 0.01 0  0.46 0.01 0  0.47 0.01 0  0.48 0.01 0  0.49 0.01 0  0.5 0.01 0  0.51 0.01 0  0.52 0.01 0  0.53 0.01 0  0.54 0.01 0  0.55 0.01 0  0.5600000000000001 0.01 0  0.57 0.01 0  0.58 0.01 0  0.59 0.01 0  0.6 0.01 0  0.61 0.01 0  0.62 0.01 0  0.63 0.01 0  0.64 0.01 0  0.65 0.01 0  0.66 0.01 0  0.67 0.01 0  0.68 0.01 0  0.6899999999999999 0.01 0  0.7 0.01 0  0.71 0.01 0  0.72 0.01 0  0.73 0.01 0  0.74 0.01 0  0.75 0.01 0  0.76 0.01 0  0.77 0.01 0  0.78 0.01 0  0.79 0.01 0  0.8 0.01 0  0.8100000000000001 0.01 0  0.82 0.01 0  0.83 0.01 0  0.84 0.01 0  0.85 0.01 0  0.86 0.01 0  0.87 0.01 0  0.88 0.01 0  0.89 0.01 0  0.9 0.01 0  0.91 0.01 0  0.92 0.01 0  0.93 0.01 0  0.9399999999999999 0.01 0  0.95 0.01 0  0.96 0.01 0  0.97 0.01 0  0.98 0.01 0  0.99 0.01 0  1 0.01 0  0 0.02 0  0.01 0.02 0  0.02 0.02 0  0.03 0.02 0  0.04 0.02 0  0.05 0.02 0  0.06 0.02 0  0.07000000000000001 0.02 0  0.08 0.02 0  0.09 0.02 0  0.1 0.02 0  0.11 0.02 0  0.12 0.02 0  0.13 0.02 0  0.14 0.02 0  0.15 0.02 0  0.16 0.02 0  0.17 0.02 0  0.18 0.02 0  0.19 0.02 0  0.2 0.02 0  0.21 0.02 0  0.22 0.02 0  0.23 0.02 0  0.24 0.02 0  0.25 0.02 0  0.26 0.02 0  0.27 0.02 0  0.28 0.02 0  0.29 0.02 0  0.3 0.02 0  0.31 0.02 0  0.32 0.02 0  0.33 0.02 0  0.34 0.02 0  0.35 0.02 0  0.36 0.02 0  0.37 0.02 0  0.38 0.02 0  0.39 0.02 0  0.4 0.02 0  0.41 0.02 0  0.42 0.02 0  0.43 0.02 0  0.44 0.02 0  0.45 0.02 0  0.46 0.02 0  0.47 0.02 0  0.48 0.02 0  0.49 0.02 0  0.5 0.02 0  0.51 0.02 0  0.52 0.02 0  0.53 0.02 0  0.54 0.02 0  0.55 0.02 0  0.5600000000000001 0.02 0  0.57 0.02 0  0.58 0.02 0  0.59 0.02 0  0.6 0.02 0  0.61 0.02 0  0.62 0.02 0  0.63 0.02 0  0.64 0.02 0  0.65 0.02 0  0.66 0.02 0  0.67 0.02 0  0.68 0.02 0  0.6899999999999999 0.02 0  0.7 0.02 0  0.71 0.02 0  0.72 0.02 0  0.73 0.02 0  0.74 0.02 0  0.75 0.02 0  0.76 0.02 0  0.77 0.02 0  0.78 0.02 0  0.79 0.02 0  0.8 0.02 0  0.8100000000000001 0.02 0  0.82 0.02 0  0.83 0.02 0  0.84 0.02 0  0.85 0.02 0  0.86 0.02 0  0.87 0.02 0  0.88 0.02 0  0.89 0.02 0  0.9 0.02 0  0.91 0.02 0  0.92 0.02 0  0.93 0.02 0  0.9399999999999999 0.02 0  0.95 0.02 0  0.96 0.02 0  0.97 0.02 0  0.98 0.02 0  0.99 0.02 0  1 0.02 0  0 0.03 0  0.01 0.03 0  0.02 0.03 0  0.03 0.03 0  0.04 0.03 0  0.05 0.03 0  0.06 0.03 0  0.07000000000000001 0.03 0  0.08 0.03 0  0.09 0.03 0  0.1 0.03 0  0.11 0.03 0  0.12 0.03 0  0.13 0.03 0  0.14 0.03 0  0.15 0.03 0  0.16 0.03 0  0.17 0.03 0  0.18 0.03 0  0.19 0.03 0  0.2 0.03 0  0.21 0.03 0  0.22 0.03 0  0.23 0.03 0  0.24 0.03 0  0.25 0.03 0  0.26 0.03 0  0.27 0.03 0  0.28 0.03 0  0.29 0.03 0  0.3 0.03 0  0.31 0.03 0  0.32 0.03 0  0.33 0.03 0  0.34 0.03 0  0.35 0.03 0  0.36 0.03 0  0.37 0.03 0  0.38 0.03 0  0.39 0.03 0  0.4 0.03 0  0.41 0.03 0  0.42 0.03 0  0.43 0.03 0  0.44 0.03 0  0.45 0.03 0  0.46 0.03 0  0.47 0.03 0  0.48 0.03 0  0.49 0.03 0  0.5 0.03 0  0.51 0.03 0  0.52 0.03 0  0.53 0.03 0  0.54 0.03 0  0.55 0.03 0  0.5600000000000001 0.03 0  0.57 0.03 0  0.58 0.03 0  0.59 0.03 0  0.6 0.03 0  0.61 0.03 0  0.62 0.03 0  0.63 0.03 0  0.64 0.03 0  0.65 0.03 0  0.66 0.03 0  0.67 0.03 0  0.68 0.03 0  0.6899999999999999 0.03 0  0.7 0.03 0  0.71 0.03 0  0.72 0.03 0  0.73 0.03 0  0.74 0.03 0  0.75 0.03 0  0.76 0.03 0  0.77 0.03 0  0.78 0.03 0  0.79 0.03 0  0.8 0.03 0  0.8100000000000001 0.03 0  0.82 0.03 0  0.83 0.03 0  0.84 0.03 0  0.85 0.03 0  0.86 0.03 0  0.87 0.03 0  0.88 0.03 0  0.89 0.03 0  0.9 0.03 0  0.91 0.03 0  0.92 0.03 0  0.93 0.03 0  0.9399999999999999 0.03 0  0.95 0.03 0  0.96 0.03 0  0.97 0.03 0  0.98 0.03 0  0.99 0.03 0  1 0.03 0  0 0.04 0  0.01 0.04 0  0.02 0.04 0  0.03 0.04 0  0.04 0.04 0  0.05 0.04 0  0.06 0.04 0  0.07000000000000001 0.04 0  0.08 0.04 0  0.09 0.04 0  0.1 0.04 0  0.11 0.04 0  0.12 0.04 0  0.13 0.04 0  0.14 0.04 0  0.15 0.04 0  0.16 0.04 0  0.17 0.04 0  0.18 0.04 0  0.19 0.04 0  0.2 0.04 0  0.21 0.04 0  0.22 0.04 0  0.23 0.04 0  0.24 0.04 0  0.25 0.04 0  0.26 0.04 0  0.27 0.04 0  0.28 0.04 0  0.29 0.04 0  0.3 0.04 0  0.31 0.04 0  0.32 0.04 0  0.33 0.04 0  0.34 0.04 0  0.35 0.04 0  0.36 0.04 0  0.37 0.04 0  0.38 0.04 0  0.39 0.04 0  0.4 0.04 0  0.41 0.04 0  0.42 0.04 0  0.43 0.04 0  0.44 0.04 0  0.45 0.04 0  0.46 0.04 0  0.47 0.04 0  0.48 0.04 0  0.49 0.04 0  0.5 0.04 0  0.51 0.04 0  0.52 0.04 0  0.53 0.04 0  0.54 0.04 0  0.55 0.04 0  0.5600000000000001 0.04 0  0.57 0.04 0  0.58 0.04 0  0.59 0.04 0  0.6 0.04 0  0.61 0.04 0  0.62 0.04 0  0.63 0.04 0  0.64 0.04 0  0.65 0.04 0  0.66 0.04 0  0.67 0.04 0  0.68 0.04 0  0.6899999999999999 0.04 0  0.7 0.04 0  0.71 0.04 0  0.72 0.04 0  0.73 0.04 0  0.74 0.04 0  0.75 0.04 0  0.76 0.04 0  0.77 0.04 0  0.78 0.04 0  0.79 0.04 0  0.8 0.04 0  0.8100000000000001 0.04 0  0.82 0.04 0  0.83 0.04 0  0.84 0.04 0  0.85 0.04 0  0.86 0.04 0  0.87 0.04 0  0.88 0.04 0  0.89 0.04 0  0.9 0.04 0  0.91 0.04 0  0.92 0.04 0  0.93 0.04 0  0.9399999999999999 0.04 0  0.95 0.04 0  0.96 0.04 0  0.97 0.04 0  0.98 0.04 0  0.99 0.04 0  1 0.04 0  0 0.05 0  0.01 0.05 0  0.02 0.05 0  0.03 0.05 0  0.04 0.05 0  0.05 0.05 0  0.06 0.05 0  0.07000000000000001 0.05 0  0.08 0.05 0  0.09 0.05 0  0.1 0.05 0  0.11 0.05 0  0.12 0.05 0  0.13 0.05 0  0.14 0.05 0  0.15 0.05 0  0.16 0.05 0  0.17 0.05 0  0.18 0.05 0  0.19 0.05 0  0.2 0.05 0  0.21 0.05 0  0.22 0.05 0  0.23 0.05 0  0.24 0.05 0  0.25 0.05 0  0.26 0.05 0  0.27 0.05 0  0.28 0.05 0  0.29 0.05 0  0.3 0.05 0  0.31 0.05 0  0.32 0.05 0  0.33 0.05 0  0.34 0.05 0  0.35 0.05 0  0.36 0.05 0  0.37 0.05 0  0.38 0.05 0  0.39 0.05 0  0.4 0.05 0  0.41 0.05 0  0.42 0.05 0  0.43 0.05 0  0.44 0.05 0  0.45 0.05 0  0.46 0.05 0  0.47 0.05 0  0.48 0.05 0  0.49 0.05 0  0.5 0.05 0  0.51 0.05 0  0.52 0.05 0  0.53 0.05 0  0.54 0.05 0  0.55 0.05 0  0.5600000000000001 0.05 0  0.57 0.05 0  0.58 0.05 0  0.59 0.05 0  0.6 0.05 0  0.61 0.05 0  0.62 0.05 0  0.63 0.05 0  0.64 0.05 0  0.65 0.05 0  0.66 0.05 0  0.67 0.05 0  0.68 0.05 0  0.6899999999999999 0.05 0  0.7 0.05 0  0.71 0.05 0  0.72 0.05 0  0.73 0.05 0  0.74 0.05 0  0.75 0.05 0  0.76 0.05 0  0.77 0.05 0  0.78 0.05 0  0.79 0.05 0  0.8 0.05 0  0.8100000000000001 0.05 0  0.82 0.05 0  0.83 0.05 0  0.84 0.05 0  0.85 0.05 0  0.86 0.05 0  0.87 0.05 0  0.88 0.05 0  0.89 0.05 0  0.9 0.05 0  0.91 0.05 0  0.92 0.05 0  0.93 0.05 0  0.9399999999999999 0.05 0  0.95 0.05 0  0.96 0.05 0  0.97 0.05 0  0.98 0.05 0  0.99 0.05 0  1 0.05 0  0 0.06 0  0.01 0.06 0  0.02 0.06 0  0.03 0.06 0  0.04 0.06 0  0.05 0.06 0  0.06 0.06 0  0.07000000000000001 0.06 0  0.08 0.06 0  0.09 0.06 0  0.1 0.06 0  0.11 0.06 0  0.12 0.06 0  0.13 0.06 0  0.14 0.06 0  0.15 0.06 0  0.16 0.06 0  0.17 0.06 0  0.18 0.06 0  0.19 0.06 0  0.2 0.06 0  0.21 0.06 0  0.22 0.06 0  0.23 0.06 0  0.24 0.06 0  0.25 0.06 0  0.26 0.06 0  0.27 0.06 0  0.28 0.06 0  0.29 0.06 0  0.3 0.06 0  0.31 0.06 0  0.32 0.06 0  0.33 0.06 0  0.34 0.06 0  0.35 0.06 0  0.36 0.06 0  0.37 0.06 0  0.38 0.06 0  0.39 0.06 0  0.4 0.06 0  0.41 0.06 0  0.42 0.06 0  0.43 0.06 0  0.44 0.06 0  0.45 0.06 0  0.46 0.06 0  0.47 0.06 0  0.48 0.06 0  0.49 0.06 0  0.5 0.06 0  0.51 0.06 0  0.52 0.06 0  0.53 0.06 0  0.54 0.06 0  0.55 0.06 0  0.5600000000000001 0.06 0  0.57 0.06 0  0.58 0.06 0  0.59 0.06 0  0.6 0.06 0  0.61 0.06 0  0.62 0.06 0  0.63 0.06 0  0.64 0.06 0  0.65 0.06 0  0.66 0.06 0  0.67 0.06 0  0.68 0.06 0  0.6899999999999999 0.06 0  0.7 0.06 0  0.71 0.06 0  0.72 0.06 0  0.73 0.06 0  0.74 0.06 0  0.75 0.06 0  0.76 0.06 0  0.77 0.06 0  0.78 0.06 0  0.79 0.06 0  0.8 0.06 0  0.8100000000000001 0.06 0  0.82 0.06 0  0.83 0.06 0  0.84 0.06 0  0.85 0.06 0  0.86 0.06 0  0.87 0.06 0  0.88 0.06 0  0.89 0.06 0  0.9 0.06 0  0.91 0.06 0  0.92 0.06 0  0.93 0.06 0  0.9399999999999999 0.06 0  0.95 0.06 0  0.96 0.06 0  0.97 0.06 0  0.98 0.06 0  0.99 0.06 0  1 0.06 0  0 0.07000000000000001 0  0.01 0.07000000000000001 0  0.02 0.07000000000000001 0  0.03 0.07000000000000001 0  0.04 0.07000000000000001 0  0.05 0.07000000000000001 0  0.06 0.07000000000000001 0  0.07000000000000001 0.07000000000000001 0  0.08 0.07000000000000001 0  0.09 0.07000000000000001 0  0.1 0.07000000000000001 0  0.11 0.07000000000000001 0  0.12 0.07000000000000001 0  0.13 0.07000000000000001 0  0.14 0.07000000000000001 0  0.15 0.07000000000000001 0  0.16 0.07000000000000001 0  0.17 0.0700
[...]
<PointData  Scalars="f_17"> 
<DataArray  type="Float64"  Name="f_17"  format="ascii">0.0000000000000000e+00  5.0000000000000000e+01  5.0000000000000000e+01  5.0000000000000000e+01  5.0000000000000000e+01  5.0000000000000000e+01  5.0000000000000000e+01  5.0000000000000000e+01  5.0000000000000000e+01  5.0000000000000000e+01  5.0000000000000000e+01  5.0000000000000000e+01  5.0000000000000000e+01  5.0000000000000000e+01  5.0000000000000000e+01  5.0000000000000000e+01  5.0000000000000000e+01  5.0000000000000000e+01  5.0000000000000000e+01  5.0000000000000000e+01  5.0000000000000000e+01  5.0000000000000000e+01  5.0000000000000000e+01  5.0000000000000000e+01  5.0000000000000000e+01  5.0000000000000000e+01  5.0000000000000000e+01  5.0000000000000000e+01  5.0000000000000000e+01  5.0000000000000000e+01  5.0000000000000000e+01  5.0000000000000000e+01  5.0000000000000000e+01  5.0000000000000000e+01  5.0000000000000000e+01  5.0000000000000000e+01  5.0000000000000000e+01  5.0000000000000000e+01  5.0000000000000000e+01  5.0000000000000000e+01  5.0000000000000000e+01  5.0000000000000000e+01  5.0000000000000000e+01  5.0000000000000000e+01  5.0000000000000000e+01  5.0000000000000000e+01  5.0000000000000000e+01  5.0000000000000000e+01  5.0000000000000000e+01  5.0000000000000000e+01  5.0000000000000000e+01  5.0000000000000000e+01  5.0000000000000000e+01  5.0000000000000000e+01  5.0000000000000000e+01  5.0000000000000000e+01  5.0000000000000000e+01  5.0000000000000000e+01  5.0000000000000000e+01  5.0000000000000000e+01  5.0000000000000000e+01  5.0000000000000000e+01  5.0000000000000000e+01  5.0000000000000000e+01  5.0000000000000000e+01  5.0000000000000000e+01  5.0000000000000000e+01  5.0000000000000000e+01  5.0000000000000000e+01  5.0000000000000000e+01  5.0000000000000000e+01  5.0000000000000000e+01  5.0000000000000000e+01  5.0000000000000000e+01  5.0000000000000000e+01  5.0000000000000000e+01  5.0000000000000000e+01  5.0000000000000000e+01  5.0000000000000000e+01  5.0000000000000000e+01  5.0000000000000000e+01  5.0000000000000000e+01  5.0000000000000000e+01  5.0000000000000000e+01  5.0000000000000000e+01  5.0000000000000000e+01  5.0000000000000000e+01  5.0000000000000000e+01  5.0000000000000000e+01  5.0000000000000000e+01  5.0000000000000000e+01  5.0000000000000000e+01  5.0000000000000000e+01  5.0000000000000000e+01  5.0000000000000000e+01  5.0000000000000000e+01  5.0000000000000000e+01  5.0000000000000000e+01  5.0000000000000000e+01  5.0000000000000000e+01  0.0000000000000000e+00  0.0000000000000000e+00  2.4942407811064218e+01  3.5138558047174932e+01  3.9588002273745332e+01  4.1973279559785830e+01  4.3431038924370654e+01  4.4401361471423208e+01  4.5086027558852422e+01  4.5589676703128546e+01  4.5971755075287938e+01  4.6268468176652902e+01  4.6503105180902416e+01  4.6691319997777889e+01  4.6844020908461140e+01  4.6969041324385365e+01  4.7072151220279366e+01  4.7157693699140964e+01  4.7228999208450198e+01  4.7288662986398052e+01  4.7338735677076336e+01  4.7380857269615262e+01  4.7416353125525227e+01  4.7446304085503840e+01  4.7471598502738964e+01  4.7492971448234023e+01  4.7511034662562864e+01  4.7526299732440251e+01  4.7539196237953085e+01  4.7550086118213642e+01  4.7559275159174895e+01  4.7567022266297748e+01  4.7573547013617528e+01  4.7579035837761644e+01  4.7583647156081163e+01  4.7587515622405995e+01  4.7590755685242208e+01  4.7593464576782139e+01  4.7595724833566479e+01  4.7597606428666417e+01  4.7599168579133455e+01  4.7600461279970126e+01  4.7601526606096421e+01  4.7602399816062700e+01  4.7603110285089635e+01  4.7603682290037014e+01  4.7604135664821342e+01  4.7604486341422280e+01  4.7604746788760075e+01  4.7604926359278323e+01  4.7605031550917481e+01  4.7605066190248635e+01  4.7605031540777397e+01  4.7604926338785148e+01  4.7604746757486829e+01  4.7604486298725753e+01  4.7604135609839190e+01  4.7603682221683670e+01  4.7603110202052328e+01  4.7602399716796810e+01  4.7601526488821179e+01  4.7600461142664635e+01  4.7599168419534003e+01  4.7597606244265194e+01  4.7595724621611751e+01  4.7593464334281620e+01  4.7590755408969002e+01  4.7587515308908259e+01  4.7583646801695657e+01  4.7579035438631777e+01  4.7573546565716505e+01  4.7567021765456730e+01  4.7559274601116378e+01  4.7550085498590789e+01  4.7539195552393949e+01  4.7526298976597502e+01  4.7511033832168309e+01  4.7492970539157163e+01  4.7471597511048849e+01  4.7446303007533700e+01  4.7416351957937763e+01  4.7380856009467713e+01  4.7338734321884289e+01  4.7288661534194823e+01  4.7228997657841063e+01  4.7157692049349649e+01  4.7072149471184737e+01  4.6969039476545717e+01  4.6844018963123879e+01  4.6691317956871480e+01  4.6503103047007194e+01  4.6268465952946677e+01  4.5971752765458831e+01  4.5589674311245005e+01  4.5086025089167244e+01  4.4401358928063125e+01  4.3431036310782630e+01  4.1973276877548592e+01  3.9587999519296154e+01  3.5138555199869842e+01  2.4942404775842398e+01  0.0000000000000000e+00  0.0000000000000000e+00  1.4631495625612233e+01  2.4770477054057757e+01  3.0941204727303287e+01  3.4785011516922523e+01  3.7318284056815408e+01  3.9076633645668139e+01  4.0349124465298360e+01  4.1300605121175103e+01  4.2030493773784357e+01  4.2601805741177827e+01  4.3056224176904053e+01  4.3422341683888213e+01  4.3720388576415594e+01  4.3965063653488293e+01  4.4167293750455926e+01  4.4335364116745794e+01  4.4475666035766807e+01  4.4593204216230852e+01  4.4691949165525081e+01  4.4775087018620667e+01  4.4845200006280599e+01  4.4904399055716411e+01  4.4954422748883580e+01  4.4996712239505769e+01  4.5032468725388306e+01  4.5062698082560573e+01  4.5088245926379059e+01  4.5109825445871166e+01  4.5128039718829704e+01  4.5143399765031155e+01  4.5156339273746774e+01  4.5167226709836839e+01  4.5176375333520596e+01  4.5184051544203164e+01  4.5190481865949543e+01  4.5195858822533580e+01  4.5200345897233596e+01  4.5204081732258295e+01  4.5207183691653434e+01  4.5209750887432314e+01  4.5211866749771509e+01  4.5213601207151569e+01  4.5215012530354969e+01  4.5216148884547607e+01  4.5217049625732869e+01  4.5217746371264518e+01  4.5218263868528211e+01  4.5218620681106572e+01  4.5218829707534816e+01  4.5218898543989631e+01  4.5218829698802892e+01  4.5218620663453081e+01  4.5218263841572451e+01  4.5217746334433293e+01  4.5217049578257047e+01  4.5216148825458276e+01  4.5215012458479634e+01  4.5213601121109406e+01  4.5211866647968982e+01  4.5209750768059259e+01  4.5207183552680085e+01  4.5204081571433434e+01  4.5200345712084399e+01  4.5195858610368141e+01  4.5190481623861722e+01  4.5184051269081166e+01  4.5176375022058572e+01  4.5167226358551062e+01  4.5156338878996394e+01  4.5143399323043624e+01  4.5128039225730490e+01  4.5109824897719314e+01  4.5088245319206933e+01  4.5062697412418601e+01  4.5032467988393279e+01  4.4996711431892926e+01  4.4954421867061001e+01  4.4904398096320968e+01  4.4845198966233724e+01  4.4775085895182613e+01  4.4691947956346283e+01  4.4593202919397704e+01  4.4475664649839779e+01  4.4335362640788013e+01  4.4167292184049167e+01  4.3965061996733297e+01  4.3720386829913522e+01  4.3422339848699551e+01  4.3056222254479295e+01  4.2601803733253867e+01  4.2030491682235549e+01  4.1300602947803014e+01  4.0349122211529810e+01  3.9076631312103189e+01  3.7318281642505404e+01  3.4785009018130488e+01  3.0941202135356573e+01  2.4770474353132993e+01  1.4631492809206074e+01  0.0000000000000000e+00  0.0000000000000000e+00  1.0068136049583851e+01  1.8372339644674717e+01  2.4486738605406515e+01  2.8834155525478355e+01  3.1946874645555763e+01  3.4223658294065928e+01  3.5928824816507984e+01  3.7233924476338615e+01  3.8251681210744792e+01  3.9057913335696497e+01  3.9704955356814146e+01  4.0229855694342454e+01  4.0659462319817770e+01  4.1013647846202034e+01  4.1307403648592292e+01  4.1552231647301362e+01  4.1757089974368284e+01  4.1929048908975290e+01  4.2073754625927123e+01  4.2195762910012867e+01  4.2298783252680117e+01  4.2385860120915829e+01  4.2459509476214521e+01  4.2521822947072280e+01  4.2574548297425899e+01  4.2619152299687670e+01  4.2656870387898010e+01  4.2688746264152094e+01  4.2715663786267790e+01  4.2738372863230779e+01  4.2757510652081038e+01  4.2773619035029732e+01  4.2787159124266104e+01  4.2798523370375733e+01  4.2808045721959644e+01  4.2816010187222751e+01  4.2822658074651756e+01  4.2828194133424020e+01  4.2832791770524722e+01  4.2836597487505060e+01  4.2839734653035464e+01  4.2842306706141869e+01  4.2844399867950401e+01  4.2846085425915007e+01  4.2847421643116682e+01  4.2848455335727508e+01  4.2849223153687831e+01  4.2849752592707574e+01  4.2850062759603887e+01  4.2850164907514838e+01  4.2850062752502460e+01  4.2849752578338517e+01  4.2849223131717729e+01  4.2848455305653424e+01  4.2847421604263111e+01  4.2846085377429766e+01  4.2844399808800127e+01  4.2842306635107199e+01  4.2839734568705936e+01  4.2836597388274512e+01  4.2832791654587446e+01  4.2828193998771802e+01  4.2822657919072789e+01  4.2816010008302406e+01  4.2808045517083819e+01  4.2798523136737401e+01  4.2787158858874811e+01  4.2773618734725517e+01  4.2757510313552196e+01  4.2738372483036301e+01  4.2715663360864149e+01  4.2688745789924752e+01  4.2656869861197514e+01  4.2619151716869695e+01  4.2574547654895120e+01  4.2521822241329076e+01  4.2459508703903445e+01  4.2385859278875238e+01  4.2298782337990673e+01  4.2195761920043651e+01  4.2073753558377838e+01  4.1929047761911427e+01  4.1757088746247156e+01  4.1552230336986696e+01  4.1307402255353985e+01  4.1013646369697256e+01  4.0659460760050479e+01  4.0229854051595623e+01  3.9704953631549699e+01  3.9057911528414593e+01  3.8251679321792352e+01  3.7233922505650661e+01  3.5928822763257912e+01  3.4223656156189122e+01  3.1946872419102604e+01  2.8834153203796578e+01  2.4486736178451586e+01  1.8372337099908492e+01  1.0068133375880056e+01  0.0000000000000000e+00  0.0000000000000000e+00  7.5702012417507110e+00  1.4303634007119122e+01  1.9803009026161398e+01  2.4095333831942469e+01  2.7394673563692791e+01  2.9934588013310766e+01  3.1907687804905162e+01  3.3458346800394771e+01  3.4691396301504270e+01  3.5682585064757866e+01  3.6487038823884163e+01  3.7145372885455622e+01  3.7687941629608815e+01  3.8137764001430682e+01  3.8512543924078408e+01  3.8826078694572587e+01  3.9089252758745147e+01  3.9310748332260168e+01  3.9497560512113957e+01  3.9655375722776910e+01  3.9788853405941566e+01  3.9901838334358075e+01  3.9997522562436579e+01  4.0078570376095492e+01  4.0147215744828571e+01  4.0205339111691352e+01  4.0254528492271291e+01  4.0296128535585673e+01  4.0331280258059579e+01  4.0360953481956010e+01  4.0385973514205929e+01  4.0407043237204306e+01  4.0424761512804466e+01  4.0439638598519743e+01  4.0452109122462261e+01  4.0462543047696592e+01  4.0471254967992039e+01  4.0478512008542587e+01  4.0484540552041111e+01  4.0489531968823542e+01  4.0493647496855701e+01  4.0497022391065592e+01  4.0499769440341964e+01  4.0501981933259927e+01  4.0503736139339011e+01  4.0505093360706809e+01  4.0506101598886502e+01  4.0506796872638496e+01  4.0507204215033184e+01  4.0507338370948666e+01  4.0507204209762513e+01  4.0506796861954690e+01  4.0506101582503156e+01  4.0505093338191344e+01  4.0503736110108882e+01  4.0501981896578343e+01  4.0499769395312484e+01  4.0497022336626308e+01  4.0493647431773191e+01  4.0489531891687058e+01  4.0484540461257140e+01  4.0478511902330375e+01  4.0471254844380717e+01  4.0462542904523545e+01  4.0452108957374605e+01  4.0439638408978048e+01  4.0424761296089933e+01  4.0407042990429701e+01  4.0385973234330571e+01  4.0360953165804936e+01  4.0331279902347354e+01  4.0296128136944638e+01  4.0254528047284026e+01  4.0205338616927513e+01  4.0147215196885178e+01  4.0078569771639756e+01  3.9997521898250668e+01  3.9901837607384159e+01  3.9788852613325922e+01  3.9655374861911021e+01  3.9497559580670448e+01  3.9310747328221289e+01  3.9089251680420972e+01  3.8826077540606150e+01  3.8512542693434227e+01  3.8137762693362944e+01  3.7687940243605269e+01  3.7145371421151893e+01  3.6487037280942992e+01  3.5682583442705656e+01  3.4691394599516379e+01  3.3458345017017358e+01  3.1907685937700105e+01  2.9934586058412084e+01  2.7394671515278304e+01  2.4095331681685945e+01  1.9803006762865113e+01  1.4303631616756707e+01  7.5701987071079833e+00  0.0000000000000000e+00  0.0000000000000000e+00  6.0014393784813871e+00  1.1548766425862942e+01  1.6358917404970985e+01  2.0356055258940430e+01  2.3601908621644487e+01  2.6213676706934656e+01  2.8313641652463708e+01  3.0008336330101397e+01  3.1383784371100184e+01  3.2507203253684125e+01  3.3430491165714720e+01  3.4193670971058708e+01  3.4827745075065657e+01  3.5356904369504399e+01  3.5800187659312904e+01  3.6172714336740498e+01  3.6486598424549513e+01  3.6751628656725401e+01  3.6975777673631939e+01  3.7165586289599197e+01  3.7326456027595896e+01  3.7462873862549081e+01  3.7578586487429220e+01  3.7676736686723700e+01  3.7759971023063670e+01  3.7830525619377042e+01  3.7890295071187325e+01  3.7940888255035851e+01  3.7983673871741779e+01  3.8019817880630754e+01  3.8050314474800047e+01  3.8076011869645932e+01  3.8097633892815942e+01  3.8115798148739188e+01  3.8131031367056103e+01  3.8143782418608453e+01  3.8154433385623179e+01  3.8163308997292027e+01  3.8170684682890212e+01  3.8176793447986228e+01  3.8181831742234863e+01  3.8185964457503104e+01  3.8189329170964989e+01  3.8192039728031830e+01  3.8194189243571614e+01  3.8195852586050563e+01  3.8197088397411598e+01  3.8197940691219110e+01  3.8198440062486902e+01  3.8198604534361834e+01  3.8198440059223408e+01  3.8197940684572998e+01  3.8197088387143260e+01  3.8195852571796934e+01  3.8194189224841914e+01  3.8192039704202486e+01  3.8189329141272864e+01  3.8185964421038705e+01  3.8181831697934633e+01  3.8176793394624951e+01  3.8170684619073540e+01  3.8163308921449875e+01  3.8154433296004242e+01  3.8143782313276184e+01  3.8131031243887143e+01  3.8115798005424239e+01  3.8097633726863947e+01  3.8076011678391893e+01  3.8050314255416765e+01  3.8019817630145056e+01  3.7983673587055286e+01  3.7940887932950424e+01  3.7890294708434809e+01  3.7830525212653527e+01  3.7759970569067448e+01  3.7676736182196002e+01  3.7578585929196883e+01  3.7462873247567828e+01  3.7326455352992333e+01  3.7165585552709700e+01  3.6975776872036306e+01  3.6751627788272430e+01  3.6486597487371561e+01  3.6172713329254179e+01  3.5800186580201988e+01  3.5356903217681243e+01  3.4827743849606676e+01  3.4193669671109483e+01  3.3430489790358997e+01  3.2507201801770734e+01  3.1383782841021361e+01  3.0008334719515251e+01  2.8313639957955058e+01  2.6213674923614775e+01  2.3601906742703079e+01  2.0356053275188877e+01  1.6358915304422080e+01  1.1548764193274149e+01  6.0014369944287465e+00  0.0000000000000000e+00  0.0000000000000000e+00  4.9221481989353775e+00  9.5728818649749243e+00  1.3756832258245932e+01  1.7384261222986531e+01  2.0453246629238802e+01  2.3013468437737231e+01  2.5135114338686460e+01  2.6890053470931765e+01  2.8343083019872726e+01  2.9549136121149527e+01  3.0553364337701339e+01  3.1392338397066446e+01  3.2095515922638924e+01  3.2686619430248250e+01  3.3184806482683804e+01  3.3605617555457407e+01  3.3961726155981765e+01  3.4263526062510884e+01  3.4519589347088349e+01  3.4737023809920338e+01  3.4921752801600498e+01  3.5078735341553191e+01  3.5212140282660819e+01  3.5325485004814610e+01  3.5421746610563702e+01  3.5503451690875558e+01  3.5572749290494123e+01  3.5631470617916484e+01  3.5681178226793094e+01  3.5723206776777332e+01  3.5758697012339695e+01  3.5788624240400530e+01  3.5813822313985334e+01  3.5835003918755589e+01  3.5852777796776074e+01  3.5867663415711228e+01  3.5880103493141796e+01  3.5890474708344236e+01  3.5899096872751464e+01  3.5906240781676694e+01  3.5912134930879859e+01  3.5916971250010491e+01  3.5920909979192963e+01  3.5924083793739918e+01  3.5926601264183965e+01  3.5928549723731486e+01  3.5929997602248719e+01  3.5930996274516666e+01  3.5931581460346777e+01  3.5931774204930321e+01  3.5931581459240903e+01  3.5930996272208958e+01  3.5929997598545633e+01  3.5928549718338267e+01  3.5926601256699769e+01  3.5924083783651334e+01  3.5920909965866066e+01  3.5916971232682336e+01  3.5912134908648802e+01  3.5906240753492497e+01  3.5899096837405381e+01  3.5890474664459681e+01  3.5880103439165801e+01  3.5867663349907438e+01  3.5852777717219716e+01  3.5835003823331064e+01  3.5813822200386994e+01  3.5788624106137156e+01  3.5758696854742922e+01  3.5723206593014993e+01  3.5681178013887099e+01  3.5631470372765783e+01  3.5572749009902523e+01  3.5503451371584489e+01  3.5421746249288908e+01  3.5325484598286387e+01  3.5212139827666533e+01  3.5078734834980878e+01  3.4921752240481602e+01  3.4737023191469447e+01  3.4519588668737924e+01  3.4263525321937692e+01  3.3961725351122496e+01  3.3605616684509549e+01  3.3184805544088555e+01  3.2686618422651293e+01  3.2095514844824834e+01  3.1392337247862503e+01  3.0553363115845745e+01  2.9549134825119701e+01  2.8343081647668797e+01  2.6890052019811648e+01  2.5135112804851602e+01  2.3013466815971810e+01  2.0453244912512869e+01  1.7384259402036893e+01  1.3756830321132755e+01  9.5728797965571104e+00  4.9221459801358938e+00  0.0000000000000000e+00  0.0000000000000000e+00  4.1309038991393203e+00  8.0876279085778897e+00  1.1733499551574221e+01  1.4988753992888102e+01  1.7828161709711836e+01  2.0265868739162361e+01  2.2338201803039464e+01  2.4090359632520052e+01  2.5568184822694029e+01  2.6813959947597084e+01  2.7864754102614466e+01  2.8752161341510512e+01  2.9502696879474861e+01  3.0138441259700517e+01  3.0677725826179792e+01  3.1135766935897138e+01  3.1525215579803209e+01  3.1856617551906915e+01  3.2138791575368820e+01  3.2379136994029245e+01  3.2583883076981294e+01  3.2758290853023873e+01  3.2906816755239284e+01  3.3033245698407811e+01  3.3140799729883526e+01  3.3232227146487801e+01  3.3309875952883516e+01  3.3375754723562537e+01  3.3431583287319739e+01  3.3478835147463514e+01  3.3518773154792342e+01  3.3552479640170048e+01  3.3580881970569322e+01  3.3604774301846149e+01  3.3624836151621963e+01  3.3641648297412978e+01  3.3655706411526637e+01  3.3667432769778856e+01  3.3677186311550884e+01  3.3685271280809211e+01  3.3691944638912936e+01  3.3697422408339960e+01  3.3701885080333824e+01  3.3705482197691133e+01  3.3708336205536241e+01  3.3710545647211852e+01  3.3712187768768644e+01  3.3713320583493086e+01  3.3713984437096805e+01  3.3714203104294469e+01  3.3713984438271936e+01  3.3713320585770163e+01  3.3712187771999176e+01  3.3710545651167962e+01  3.3708336209904601e+01  3.3705482202065227e+01  3.3701885084204370e+01  3.3697422411084297e+01  3.3691944639783060e+01  3.3685271278919316e+01  3.3677186305864367e+01  3.3667432759095881e+01  3.3655706394472183e+01  3.3641648272426252e+01  3.3624836116947669e+01  3.3604774255528405e+01  3.3580881910448639e+01  3.3552479563884368e+01  3.3518773059782120e+01  3.3478835030982118e+01  3.3431583146448723e+01  3.3375754555232675e+01  3.3309875753901267e+01  3.3232226913567366e+01  3.3140799459683635e+01  3.3033245387572805e+01  3.2906816400443461e+01  3.2758290451017452e+01  3.2583882624636260e+01  3.2379136488382983e+01  3.2138791013663223e+01  3.1856616931619349e+01  3.1525214898667187e+01  3.1135766191908186e+01  3.0677725017583569e+01  3.0138440384958621e+01  2.9502695937204763e+01  2.8752160330395139e+01  2.7864753021277760e+01  2.6813958794441948e+01  2.5568183595699541e+01  2.4090358328996690e+01  2.2338200419343163e+01  2.0265867270370798e+01  1.7828160149270197e+01  1.4988752332230213e+01  1.1733497779717656e+01  8.0876260116804364e+00  4.1309018600006606e+00  0.0000000000000000e+00  0.0000000000000000e+00  3.5233977124581535e+00  6.9288162071804562e+00  1.0118356314126681e+01  1.3026470366672342e+01  1.5621750191173986e+01  1.7900950281699036e+01  1.9879952765032602e+01  2.1585278809574714e+01  2.3047750002225772e+01  2.4298451192487413e+01  2.5366506128014432e+01  2.6278066442334193e+01  2.7056024868293115e+01  2.7720117497416659e+01  2.8287208314587627e+01  2.8771638209393586e+01  2.9185576401734938e+01  2.9539344845776291e+01  2.9841704227884502e+01  3.0100099576385112e+01  3.0320867997756260e