<?xml version="1.0"?>
<VTKFile type="UnstructuredGrid"  version="0.1"  >
<UnstructuredGrid>
<Piece  NumberOfPoints="10201" NumberOfCells="20000">
<Points>
<DataArray  type="Float64"  NumberOfComponents="3"  format="ascii">0 0 0  0.01 0 0  0.02 0 0  0.03 0 0  0.04 0 0  0.05 0 0  0.06 0 0  0.07000000000000001 0 0  0.08 0 0  0.09 0 0  0.1 0 0  0.11 0 0  0.12 0 0  0.13 0 0  0.14 0 0  0.15 0 0  0.16 0 0  0.17 0 0  0.18 0 0  0.19 0 0  0.2 0 0  0.21 0 0  0.22 0 0  0.23 0 0  0.24 0 0  0.25 0 0  0.26 0 0  0.27 0 0  0.28 0 0  0.29 0 0  0.3 0 0  0.31 0 0  0.32 0 0  0.33 0 0  0.34 0 0  0.35 0 0  0.36 0 0  0.37 0 0  0.38 0 0  0.39 0 0  0.4 0 0  0.41 0 0  0.42 0 0  0.43 0 0  0.44 0 0  0.45 0 0  0.46 0 0  0.47 0 0  0.48 0 0  0.49 0 0  0.5 0 0  0.51 0 0  0.52 0 0  0.53 0 0  0.54 0 0  0.55 0 0  0.5600000000000001 0 0  0.57 0 0  0.58 0 0  0.59 0 0  0.6 0 0  0.61 0 0  0.62 0 0  0.63 0 0  0.64 0 0  0.65 0 0  0.66 0 0  0.67 0 0  0.68 0 0  0.6899999999999999 0 0  0.7 0 0  0.71 0 0  0.72 0 0  0.73 0 0  0.74 0 0  0.75 0 0  0.76 0 0  0.77 0 0  0.78 0 0  0.79 0 0  0.8 0 0  0.8100000000000001 0 0  0.82 0 0  0.83 0 0  0.84 0 0  0.85 0 0  0.86 0 0  0.87 0 0  0.88 0 0  0.89 0 0  0.9 0 0  0.91 0 0  0.92 0 0  0.93 0 0  0.9399999999999999 0 0  0.95 0 0  0.96 0 0  0.97 0 0  0.98 0 0  0.99 0 0  1 0 0  0 0.01 0  0.01 0.01 0  0.02 0.01 0  0.03 0.01 0  0.04 0.01 0  0.05 0.01 0  0.06 0.01 0  0.07000000000000001 0.01 0  0.08 0.01 0  0.09 0.01 0  0.1 0.01 0  0.11 0.01 0  0.12 0.01 0  0.13 0.01 0  0.14 0.01 0  0.15 0.01 0  0.16 0.01 0  0.17 0.01 0  0.18 0.01 0  0.19 0.01 0  0.2 0.01 0  0.21 0.01 0  0.22 0.01 0  0.23 0.01 0  0.24 0.01 0  0.25 0.01 0  0.26 0.01 0  0.27 0.01 0  0.28 0.01 0  0.29 0.01 0  0.3 0.01 0  0.31 0.01 0  0.32 0.01 0  0.33 0.01 0  0.34 0.01 0  0.35 0.01 0  0.36 0.01 0  0.37 0.01 0  0.38 0.01 0  0.39 0.01 0  0.4 0.01 0  0.41 0.01 0  0.42 0.01 0  0.43 0.01 0  0.44 0.01 0  0.45 0.01 0  0.46 0.01 0  0.47 0.01 0  0.48 0.01 0  0.49 0.01 0  0.5 0.01 0  0.51 0.01 0  0.52 0.01 0  0.53 0.01 0  0.54 0.01 0  0.55 0.01 0  0.5600000000000001 0.01 0  0.57 0.01 0  0.58 0.01 0  0.59 0.01 0  0.6 0.01 0  0.61 0.01 0  0.62 0.01 0  0.63 0.01 0  0.64 0.01 0  0.65 0.01 0  0.66 0.01 0  0.67 0.01 0  0.68 0.01 0  0.6899999999999999 0.01 0  0.7 0.01 0  0.71 0.01 0  0.72 0.01 0  0.73 0.01 0  0.74 0.01 0  0.75 0.01 0  0.76 0.01 0  0.77 0.01 0  0.78 0.01 0  0.79 0.01 0  0.8 0.01 0  0.8100000000000001 0.01 0  0.82 0.01 0  0.83 0.01 0  0.84 0.01 0  0.85 0.01 0  0.86 0.01 0  0.87 0.01 0  0.88 0.01 0  0.89 0.01 0  0.9 0.01 0  0.91 0.01 0  0.92 0.01 0  0.93 0.01 0  0.9399999999999999 0.01 0  0.95 0.01 0  0.96 0.01 0  0.97 0.01 0  0.98 0.01 0  0.99 0.01 0  1 0.01 0  0 0.02 0  0.01 0.02 0  0.02 0.02 0  0.03 0.02 0  0.04 0.02 0  0.05 0.02 0  0.06 0.02 0  0.07000000000000001 0.02 0  0.08 0.02 0  0.09 0.02 0  0.1 0.02 0  0.11 0.02 0  0.12 0.02 0  0.13 0.02 0  0.14 0.02 0  0.15 0.02 0  0.16 0.02 0  0.17 0.02 0  0.18 0.02 0  0.19 0.02 0  0.2 0.02 0  0.21 0.02 0  0.22 0.02 0  0.23 0.02 0  0.24 0.02 0  0.25 0.02 0  0.26 0.02 0  0.27 0.02 0  0.28 0.02 0  0.29 0.02 0  0.3 0.02 0  0.31 0.02 0  0.32 0.02 0  0.33 0.02 0  0.34 0.02 0  0.35 0.02 0  0.36 0.02 0  0.37 0.02 0  0.38 0.02 0  0.39 0.02 0  0.4 0.02 0  0.41 0.02 0  0.42 0.02 0  0.43 0.02 0  0.44 0.02 0  0.45 0.02 0  0.46 0.02 0  0.47 0.02 0  0.48 0.02 0  0.49 0.02 0  0.5 0.02 0  0.51 0.02 0  0.52 0.02 0  0.53 0.02 0  0.54 0.02 0  0.55 0.02 0  0.5600000000000001 0.02 0  0.57 0.02 0  0.58 0.02 0  0.59 0.02 0  0.6 0.02 0  0.61 0.02 0  0.62 0.02 0  0.63 0.02 0  0.64 0.02 0  0.65 0.02 0  0.66 0.02 0  0.67 0.02 0  0.68 0.02 0  0.6899999999999999 0.02 0  0.7 0.02 0  0.71 0.02 0  0.72 0.02 0  0.73 0.02 0  0.74 0.02 0  0.75 0.02 0  0.76 0.02 0  0.77 0.02 0  0.78 0.02 0  0.79 0.02 0  0.8 0.02 0  0.8100000000000001 0.02 0  0.82 0.02 0  0.83 0.02 0  0.84 0.02 0  0.85 0.02 0  0.86 0.02 0  0.87 0.02 0  0.88 0.02 0  0.89 0.02 0  0.9 0.02 0  0.91 0.02 0  0.92 0.02 0  0.93 0.02 0  0.9399999999999999 0.02 0  0.95 0.02 0  0.96 0.02 0  0.97 0.02 0  0.98 0.02 0  0.99 0.02 0  1 0.02 0  0 0.03 0  0.01 0.03 0  0.02 0.03 0  0.03 0.03 0  0.04 0.03 0  0.05 0.03 0  0.06 0.03 0  0.07000000000000001 0.03 0  0.08 0.03 0  0.09 0.03 0  0.1 0.03 0  0.11 0.03 0  0.12 0.03 0  0.13 0.03 0  0.14 0.03 0  0.15 0.03 0  0.16 0.03 0  0.17 0.03 0  0.18 0.03 0  0.19 0.03 0  0.2 0.03 0  0.21 0.03 0  0.22 0.03 0  0.23 0.03 0  0.24 0.03 0  0.25 0.03 0  0.26 0.03 0  0.27 0.03 0  0.28 0.03 0  0.29 0.03 0  0.3 0.03 0  0.31 0.03 0  0.32 0.03 0  0.33 0.03 0  0.34 0.03 0  0.35 0.03 0  0.36 0.03 0  0.37 0.03 0  0.38 0.03 0  0.39 0.03 0  0.4 0.03 0  0.41 0.03 0  0.42 0.03 0  0.43 0.03 0  0.44 0.03 0  0.45 0.03 0  0.46 0.03 0  0.47 0.03 0  0.48 0.03 0  0.49 0.03 0  0.5 0.03 0  0.51 0.03 0  0.52 0.03 0  0.53 0.03 0  0.54 0.03 0  0.55 0.03 0  0.5600000000000001 0.03 0  0.57 0.03 0  0.58 0.03 0  0.59 0.03 0  0.6 0.03 0  0.61 0.03 0  0.62 0.03 0  0.63 0.03 0  0.64 0.03 0  0.65 0.03 0  0.66 0.03 0  0.67 0.03 0  0.68 0.03 0  0.6899999999999999 0.03 0  0.7 0.03 0  0.71 0.03 0  0.72 0.03 0  0.73 0.03 0  0.74 0.03 0  0.75 0.03 0  0.76 0.03 0  0.77 0.03 0  0.78 0.03 0  0.79 0.03 0  0.8 0.03 0  0.8100000000000001 0.03 0  0.82 0.03 0  0.83 0.03 0  0.84 0.03 0  0.85 0.03 0  0.86 0.03 0  0.87 0.03 0  0.88 0.03 0  0.89 0.03 0  0.9 0.03 0  0.91 0.03 0  0.92 0.03 0  0.93 0.03 0  0.9399999999999999 0.03 0  0.95 0.03 0  0.96 0.03 0  0.97 0.03 0  0.98 0.03 0  0.99 0.03 0  1 0.03 0  0 0.04 0  0.01 0.04 0  0.02 0.04 0  0.03 0.04 0  0.04 0.04 0  0.05 0.04 0  0.06 0.04 0  0.07000000000000001 0.04 0  0.08 0.04 0  0.09 0.04 0  0.1 0.04 0  0.11 0.04 0  0.12 0.04 0  0.13 0.04 0  0.14 0.04 0  0.15 0.04 0  0.16 0.04 0  0.17 0.04 0  0.18 0.04 0  0.19 0.04 0  0.2 0.04 0  0.21 0.04 0  0.22 0.04 0  0.23 0.04 0  0.24 0.04 0  0.25 0.04 0  0.26 0.04 0  0.27 0.04 0  0.28 0.04 0  0.29 0.04 0  0.3 0.04 0  0.31 0.04 0  0.32 0.04 0  0.33 0.04 0  0.34 0.04 0  0.35 0.04 0  0.36 0.04 0  0.37 0.04 0  0.38 0.04 0  0.39 0.04 0  0.4 0.04 0  0.41 0.04 0  0.42 0.04 0  0.43 0.04 0  0.44 0.04 0  0.45 0.04 0  0.46 0.04 0  0.47 0.04 0  0.48 0.04 0  0.49 0.04 0  0.5 0.04 0  0.51 0.04 0  0.52 0.04 0  0.53 0.04 0  0.54 0.04 0  0.55 0.04 0  0.5600000000000001 0.04 0  0.57 0.04 0  0.58 0.04 0  0.59 0.04 0  0.6 0.04 0  0.61 0.04 0  0.62 0.04 0  0.63 0.04 0  0.64 0.04 0  0.65 0.04 0  0.66 0.04 0  0.67 0.04 0  0.68 0.04 0  0.6899999999999999 0.04 0  0.7 0.04 0  0.71 0.04 0  0.72 0.04 0  0.73 0.04 0  0.74 0.04 0  0.75 0.04 0  0.76 0.04 0  0.77 0.04 0  0.78 0.04 0  0.79 0.04 0  0.8 0.04 0  0.8100000000000001 0.04 0  0.82 0.04 0  0.83 0.04 0  0.84 0.04 0  0.85 0.04 0  0.86 0.04 0  0.87 0.04 0  0.88 0.04 0  0.89 0.04 0  0.9 0.04 0  0.91 0.04 0  0.92 0.04 0  0.93 0.04 0  0.9399999999999999 0.04 0  0.95 0.04 0  0.96 0.04 0  0.97 0.04 0  0.98 0.04 0  0.99 0.04 0  1 0.04 0  0 0.05 0  0.01 0.05 0  0.02 0.05 0  0.03 0.05 0  0.04 0.05 0  0.05 0.05 0  0.06 0.05 0  0.07000000000000001 0.05 0  0.08 0.05 0  0.09 0.05 0  0.1 0.05 0  0.11 0.05 0  0.12 0.05 0  0.13 0.05 0  0.14 0.05 0  0.15 0.05 0  0.16 0.05 0  0.17 0.05 0  0.18 0.05 0  0.19 0.05 0  0.2 0.05 0  0.21 0.05 0  0.22 0.05 0  0.23 0.05 0  0.24 0.05 0  0.25 0.05 0  0.26 0.05 0  0.27 0.05 0  0.28 0.05 0  0.29 0.05 0  0.3 0.05 0  0.31 0.05 0  0.32 0.05 0  0.33 0.05 0  0.34 0.05 0  0.35 0.05 0  0.36 0.05 0  0.37 0.05 0  0.38 0.05 0  0.39 0.05 0  0.4 0.05 0  0.41 0.05 0  0.42 0.05 0  0.43 0.05 0  0.44 0.05 0  0.45 0.05 0  0.46 0.05 0  0.47 0.05 0  0.48 0.05 0  0.49 0.05 0  0.5 0.05 0  0.51 0.05 0  0.52 0.05 0  0.53 0.05 0  0.54 0.05 0  0.55 0.05 0  0.5600000000000001 0.05 0  0.57 0.05 0  0.58 0.05 0  0.59 0.05 0  0.6 0.05 0  0.61 0.05 0  0.62 0.05 0  0.63 0.05 0  0.64 0.05 0  0.65 0.05 0  0.66 0.05 0  0.67 0.05 0  0.68 0.05 0  0.6899999999999999 0.05 0  0.7 0.05 0  0.71 0.05 0  0.72 0.05 0  0.73 0.05 0  0.74 0.05 0  0.75 0.05 0  0.76 0.05 0  0.77 0.05 0  0.78 0.05 0  0.79 0.05 0  0.8 0.05 0  0.8100000000000001 0.05 0  0.82 0.05 0  0.83 0.05 0  0.84 0.05 0  0.85 0.05 0  0.86 0.05 0  0.87 0.05 0  0.88 0.05 0  0.89 0.05 0  0.9 0.05 0  0.91 0.05 0  0.92 0.05 0  0.93 0.05 0  0.9399999999999999 0.05 0  0.95 0.05 0  0.96 0.05 0  0.97 0.05 0  0.98 0.05 0  0.99 0.05 0  1 0.05 0  0 0.06 0  0.01 0.06 0  0.02 0.06 0  0.03 0.06 0  0.04 0.06 0  0.05 0.06 0  0.06 0.06 0  0.07000000000000001 0.06 0  0.08 0.06 0  0.09 0.06 0  0.1 0.06 0  0.11 0.06 0  0.12 0.06 0  0.13 0.06 0  0.14 0.06 0  0.15 0.06 0  0.16 0.06 0  0.17 0.06 0  0.18 0.06 0  0.19 0.06 0  0.2 0.06 0  0.21 0.06 0  0.22 0.06 0  0.23 0.06 0  0.24 0.06 0  0.25 0.06 0  0.26 0.06 0  0.27 0.06 0  0.28 0.06 0  0.29 0.06 0  0.3 0.06 0  0.31 0.06 0  0.32 0.06 0  0.33 0.06 0  0.34 0.06 0  0.35 0.06 0  0.36 0.06 0  0.37 0.06 0  0.38 0.06 0  0.39 0.06 0  0.4 0.06 0  0.41 0.06 0  0.42 0.06 0  0.43 0.06 0  0.44 0.06 0  0.45 0.06 0  0.46 0.06 0  0.47 0.06 0  0.48 0.06 0  0.49 0.06 0  0.5 0.06 0  0.51 0.06 0  0.52 0.06 0  0.53 0.06 0  0.54 0.06 0  0.55 0.06 0  0.5600000000000001 0.06 0  0.57 0.06 0  0.58 0.06 0  0.59 0.06 0  0.6 0.06 0  0.61 0.06 0  0.62 0.06 0  0.63 0.06 0  0.64 0.06 0  0.65 0.06 0  0.66 0.06 0  0.67 0.06 0  0.68 0.06 0  0.6899999999999999 0.06 0  0.7 0.06 0  0.71 0.06 0  0.72 0.06 0  0.73 0.06 0  0.74 0.06 0  0.75 0.06 0  0.76 0.06 0  0.77 0.06 0  0.78 0.06 0  0.79 0.06 0  0.8 0.06 0  0.8100000000000001 0.06 0  0.82 0.06 0  0.83 0.06 0  0.84 0.06 0  0.85 0.06 0  0.86 0.06 0  0.87 0.06 0  0.88 0.06 0  0.89 0.06 0  0.9 0.06 0  0.91 0.06 0  0.92 0.06 0  0.93 0.06 0  0.9399999999999999 0.06 0  0.95 0.06 0  0.96 0.06 0  0.97 0.06 0  0.98 0.06 0  0.99 0.06 0  1 0.06 0  0 0.07000000000000001 0  0.01 0.07000000000000001 0  0.02 0.07000000000000001 0  0.03 0.07000000000000001 0  0.04 0.07000000000000001 0  0.05 0.07000000000000001 0  0.06 0.07000000000000001 0  0.07000000000000001 0.07000000000000001 0  0.08 0.07000000000000001 0  0.09 0.07000000000000001 0  0.1 0.07000000000000001 0  0.11 0.07000000000000001 0  0.12 0.07000000000000001 0  0.13 0.07000000000000001 0  0.14 0.07000000000000001 0  0.15 0.07000000000000001 0  0.16 0.07000000000000001 0  0.17 0.0700
[...]
<PointData  Scalars="f_17"> 
<DataArray  type="Float64"  Name="f_17"  format="ascii">0.0000000000000000e+00  5.0000000000000000e+01  5.0000000000000000e+01  5.0000000000000000e+01  5.0000000000000000e+01  5.0000000000000000e+01  5.0000000000000000e+01  5.0000000000000000e+01  5.0000000000000000e+01  5.0000000000000000e+01  5.0000000000000000e+01  5.0000000000000000e+01  5.0000000000000000e+01  5.0000000000000000e+01  5.0000000000000000e+01  5.0000000000000000e+01  5.0000000000000000e+01  5.0000000000000000e+01  5.0000000000000000e+01  5.0000000000000000e+01  5.0000000000000000e+01  5.0000000000000000e+01  5.0000000000000000e+01  5.0000000000000000e+01  5.0000000000000000e+01  5.0000000000000000e+01  5.0000000000000000e+01  5.0000000000000000e+01  5.0000000000000000e+01  5.0000000000000000e+01  5.0000000000000000e+01  5.0000000000000000e+01  5.0000000000000000e+01  5.0000000000000000e+01  5.0000000000000000e+01  5.0000000000000000e+01  5.0000000000000000e+01  5.0000000000000000e+01  5.0000000000000000e+01  5.0000000000000000e+01  5.0000000000000000e+01  5.0000000000000000e+01  5.0000000000000000e+01  5.0000000000000000e+01  5.0000000000000000e+01  5.0000000000000000e+01  5.0000000000000000e+01  5.0000000000000000e+01  5.0000000000000000e+01  5.0000000000000000e+01  5.0000000000000000e+01  5.0000000000000000e+01  5.0000000000000000e+01  5.0000000000000000e+01  5.0000000000000000e+01  5.0000000000000000e+01  5.0000000000000000e+01  5.0000000000000000e+01  5.0000000000000000e+01  5.0000000000000000e+01  5.0000000000000000e+01  5.0000000000000000e+01  5.0000000000000000e+01  5.0000000000000000e+01  5.0000000000000000e+01  5.0000000000000000e+01  5.0000000000000000e+01  5.0000000000000000e+01  5.0000000000000000e+01  5.0000000000000000e+01  5.0000000000000000e+01  5.0000000000000000e+01  5.0000000000000000e+01  5.0000000000000000e+01  5.0000000000000000e+01  5.0000000000000000e+01  5.0000000000000000e+01  5.0000000000000000e+01  5.0000000000000000e+01  5.0000000000000000e+01  5.0000000000000000e+01  5.0000000000000000e+01  5.0000000000000000e+01  5.0000000000000000e+01  5.0000000000000000e+01  5.0000000000000000e+01  5.0000000000000000e+01  5.0000000000000000e+01  5.0000000000000000e+01  5.0000000000000000e+01  5.0000000000000000e+01  5.0000000000000000e+01  5.0000000000000000e+01  5.0000000000000000e+01  5.0000000000000000e+01  5.0000000000000000e+01  5.0000000000000000e+01  5.0000000000000000e+01  5.0000000000000000e+01  5.0000000000000000e+01  0.0000000000000000e+00  0.0000000000000000e+00  2.4971186401272305e+01  3.5196036309926932e+01  3.9674020621376293e+01  4.2087600409615106e+01  4.3573348749526112e+01  4.4571273509597319e+01  4.5283085123704716e+01  4.5813357045804104e+01  4.6221473737971465e+01  4.6543583774230086e+01  4.6802924542003069e+01  4.7015103593031526e+01  4.7190988491779635e+01  4.7338377712510663e+01  4.7463012136649311e+01  4.7569211610257042e+01  4.7660289084264875e+01  4.7738827920642372e+01  4.7806872308763865e+01  4.7866060953012472e+01  4.7917722802498950e+01  4.7962946821153281e+01  4.8002633652421338e+01  4.8037534431323643e+01  4.8068280325386553e+01  4.8095405289663923e+01  4.8119363788129121e+01  4.8140544735136366e+01  4.8159282566044013e+01  4.8175866104401614e+01  4.8190545721278525e+01  4.8203539158617630e+01  4.8215036298410872e+01  4.8225203093160573e+01  4.8234184823754788e+01  4.8242108813836658e+01  4.8249086701673292e+01  4.8255216349079348e+01  4.8260583450419482e+01  4.8265262891882209e+01  4.8269319901173318e+01  4.8272811019861358e+01  4.8275784924315211e+01  4.8278283116138262e+01  4.8280340498929519e+01  4.8281985854883359e+01  4.8283242231996034e+01  4.8284127250356136e+01  4.8284653334043433e+01  4.8284827873469219e+01  4.8284653321484228e+01  4.8284127225201097e+01  4.8283242194172338e+01  4.8281985804282840e+01  4.8280340435409769e+01  4.8278283039524332e+01  4.8275784834401570e+01  4.8272810916414286e+01  4.8269319783933611e+01  4.8265262760568206e+01  4.8260583304730602e+01  4.8255216188699727e+01  4.8249086526275590e+01  4.8242108623086317e+01  4.8234184617314618e+01  4.8225202870695199e+01  4.8215036059591512e+01  4.8203538903126763e+01  4.8190545448814866e+01  4.8175865814685224e+01  4.8159282258820625e+01  4.8140544410182571e+01  4.8119363445256660e+01  4.8095404928724243e+01  4.8068279946274842e+01  4.8037534033982567e+01  4.8002633236844432e+01  4.7962946387388151e+01  4.7917722350649441e+01  4.7866060483240460e+01  4.7806871821290947e+01  4.7738827415750251e+01  4.7660288562294930e+01  4.7569211071609651e+01  4.7463011581781551e+01  4.7338377141933542e+01  4.7190987906053685e+01  4.7015102992761229e+01  4.6802923927829397e+01  4.6543583146820943e+01  4.6221473098008317e+01  4.5813356393963552e+01  4.5283084460630427e+01  4.4571272835851588e+01  4.3573348065492944e+01  4.2087599715264169e+01  3.9674019915543049e+01  3.5196035587516675e+01  2.4971185639395966e+01  0.0000000000000000e+00  0.0000000000000000e+00  1.4688813944282204e+01  2.4884955238885393e+01  3.1112525078942657e+01  3.5012700973625819e+01  3.7601718326236117e+01  3.9415042605352617e+01  4.0741598756404308e+01  4.1746103836135418e+01  4.2527853123264826e+01  4.3149748573294410e+01  4.3653370211966241e+01  4.4067218321038482e+01  4.4411442124512668e+01  4.4700670837425442e+01  4.4945773345723047e+01  4.5154988569280519e+01  4.5334672930771092e+01  4.5489807468388946e+01  4.5624349813631525e+01  4.5741483519678063e+01  4.5843797937294902e+01  4.5933420145345522e+01  4.6012113175424474e+01  4.6081350146096497e+01  4.6142370917438313e+01  4.6196225886021061e+01  4.6243810198275320e+01  4.6285890740336008e+01  4.6323127622535516e+01  4.6356091425300299e+01  4.6385277150643418e+01  4.6411115590181659e+01  4.6433982650014144e+01  4.6454207046740592e+01  4.6472076694819215e+01  4.6487844034609545e+01  4.6501730496607280e+01  4.6513930256136597e+01  4.6524613400915655e+01  4.6533928609128935e+01  4.6542005416213030e+01  4.6548956133216628e+01  4.6554877467382774e+01  4.6559851885807134e+01  4.6563948755097186e+01  4.6567225283481832e+01  4.6569727286468044e+01  4.6571489792660046e+01  4.6572537502537571e+01  4.6572885109674438e+01  4.6572537490925065e+01  4.6571489769400728e+01  4.6569727251493660e+01  4.6567225236691215e+01  4.6563948696357095e+01  4.6559851814953717e+01  4.6554877384223730e+01  4.6548956037533237e+01  4.6542005307762722e+01  4.6533928487648083e+01  4.6524613266123019e+01  4.6513930107736549e+01  4.6501730334293271e+01  4.6487843858068352e+01  4.6472076503734790e+01  4.6454206840798477e+01  4.6433982428905601e+01  4.6411115353608032e+01  4.6385276898320583e+01  4.6356091156963174e+01  4.6323127337942132e+01  4.6285890439271540e+01  4.6243809880556284e+01  4.6196225551498905e+01  4.6142370566002704e+01  4.6081349777678199e+01  4.6012112789998042e+01  4.5933419742931150e+01  4.5843797517959892e+01  4.5741483083537403e+01  4.5624349360847980e+01  4.5489806999172195e+01  4.5334672445375745e+01  4.5154988068003171e+01  4.4945772828898434e+01  4.4700670305420672e+01  4.4411441577719955e+01  4.4067217759865891e+01  4.3653369636825808e+01  4.3149747984586746e+01  4.2527852521358085e+01  4.1746103221336575e+01  4.0741598128916728e+01  3.9415041965208012e+01  3.7601717673176459e+01  3.5012700306882152e+01  3.1112524396830217e+01  2.4884954538452043e+01  1.4688813225704180e+01  0.0000000000000000e+00  0.0000000000000000e+00  1.0153517426156872e+01  1.8542865872584095e+01  2.4741936631524652e+01  2.9173320965146473e+01  3.2369077924678940e+01  3.4727752688827174e+01  3.6513456268508520e+01  3.7897543035543372e+01  3.8992553935983629e+01  3.9874138463849164e+01  4.0594477537280120e+01  4.1190482075096618e+01  4.1688879265348852e+01  4.2109438065895176e+01  4.2467063516514443e+01  4.2773188500636728e+01  4.3036719187610558e+01  4.3264690554003451e+01  4.3462729543815129e+01  4.3635388038343606e+01  4.3786386071721374e+01  4.3918792102732354e+01  4.4035158442107878e+01  4.4137624260150318e+01  4.4227994838139161e+01  4.4307803192403540e+01  4.4378358465649072e+01  4.4440784276283622e+01  4.4496049369575282e+01  4.4544992311145997e+01  4.4588341528417111e+01  4.4626731688678348e+01  4.4660717169060504e+01  4.4690783200139499e+01  4.4717355134658781e+01  4.4740806194258774e+01  4.4761463971844648e+01  4.4779615909325670e+01  4.4795513925577858e+01  4.4809378334435380e+01  4.4821401164952093e+01  4.4831748974337124e+01  4.4840565226540946e+01  4.4847972295452550e+01  4.4854073140298027e+01  4.4858952691520436e+01  4.4862678977710011e+01  4.4865304017682469e+01  4.4866864496281003e+01  4.4867382237674057e+01  4.4866864485634665e+01  4.4865303996357234e+01  4.4862678945641193e+01  4.4858952648611826e+01  4.4854073086423220e+01  4.4847972230456072e+01  4.4840565150240167e+01  4.4831748886524352e+01  4.4821401065396955e+01  4.4809378222887467e+01  4.4795513801769900e+01  4.4779615772976392e+01  4.4761463822662435e+01  4.4740806031945333e+01  4.4717354958912850e+01  4.4690783010660667e+01  4.4660716965553313e+01  4.4626731470856228e+01  4.4588341296006341e+01  4.4544992063889730e+01  4.4496049107237184e+01  4.4440783998651604e+01  4.4378358172538647e+01  4.4307802883660777e+01  4.4227994513643573e+01  4.4137623919816896e+01  4.4035158085888888e+01  4.3918791730618352e+01  4.3786385683741912e+01  4.3635387634566534e+01  4.3462729124345678e+01  4.3264690118981946e+01  4.3036718737208908e+01  4.2773188035054027e+01  4.2467063035970980e+01  4.2109437570624500e+01  4.1688878755588043e+01  4.1190481551074186e+01  4.0594476999200317e+01  3.9874137911872353e+01  3.8992553370200866e+01  3.7897542455942563e+01  3.6513455674928338e+01  3.4727752080892607e+01  3.2369077301712061e+01  2.9173320326059102e+01  2.4741935974777068e+01  1.8542865196584170e+01  1.0153516730467219e+01  0.0000000000000000e+00  0.0000000000000000e+00  7.6829394588996287e+00  1.4528797920952460e+01  2.0139974364284001e+01  2.4543171039532599e+01  2.7952155902382714e+01  3.0600202164578580e+01  3.2679646815905620e+01  3.4334605177000547e+01  3.5669667024056096e+01  3.6760358277559533e+01  3.7661601930315825e+01  3.8413831766976870e+01  3.9047242698986175e+01  3.9584716798216306e+01  4.0043843963505260e+01  4.0438330289305156e+01  4.0778991545898108e+01  4.1074463255246528e+01  4.1331715027592551e+01  4.1556428026577962e+01  4.1753275497657818e+01  4.1926133767588645e+01  4.2078242755766489e+01  4.2212329388116167e+01  4.2330703444234580e+01  4.2435332700167940e+01  4.2527902363028268e+01  4.2609862473590951e+01  4.2682466008956908e+01  4.2746799735080806e+01  4.2803809360888280e+01  4.2854320178598293e+01  4.2899054101813171e+01  4.2938643808063560e+01  4.2973644537498231e+01  4.3004543981213693e+01  4.3031770601904121e+01  4.3055700659222197e+01  4.3076664157456598e+01  4.3094949890134714e+01  4.3110809722184165e+01  4.3124462223255975e+01  4.3136095744153302e+01  4.3145871010825289e+01  4.3153923296153174e+01  4.3160364218062817e+01  4.3165283202784629e+01  4.3168748643903690e+01  4.3170808780852248e+01  4.3171492314392388e+01  4.3170808771185769e+01  4.3168748624539340e+01  4.3165283173660029e+01  4.3160364179085200e+01  4.3153923247200332e+01  4.3145870951747284e+01  4.3136095674773792e+01  4.3124462143374373e+01  4.3110809631577773e+01  4.3094949788561507e+01  4.3076664044657903e+01  4.3055700534925613e+01  4.3031770465826931e+01  4.3004543833066258e+01  4.2973644376987515e+01  4.2938643634896884e+01  4.2899053915701529e+01  4.2854319979260588e+01  4.2803809148054626e+01  4.2746799508496196e+01  4.2682465768384574e+01  4.2609862218815749e+01  4.2527902093859332e+01  4.2435332416441334e+01  4.2330703145815527e+01  4.2212329074900545e+01  4.2078242427681992e+01  4.1926133424595086e+01  4.1753275139746670e+01  4.1556427653771365e+01  4.1331714639940849e+01  4.1074462852825064e+01  4.0778991128802559e+01  4.0438329857645542e+01  4.0043843517398479e+01  3.9584716337776236e+01  3.9047242224312306e+01  3.8413831278139547e+01  3.7661601427338468e+01  3.6760357760396495e+01  3.5669666492565078e+01  3.4334604630908125e+01  3.2679646254763874e+01  3.0600201587712530e+01  2.7952155308831969e+01  2.4543170428007446e+01  2.0139973733189152e+01  1.4528797268537570e+01  7.6829387833333458e+00  0.0000000000000000e+00  0.0000000000000000e+00  6.1406089351183173e+00  1.1826719733920697e+01  1.6774884388000867e+01  2.0908889249939392e+01  2.4290096346038318e+01  2.7035351352905991e+01  2.9266598829199214e+01  3.1090052673337521e+01  3.2591438519335973e+01  3.3837698888342224e+01  3.4880481784927547e+01  3.5759586049982225e+01  3.6505817255820752e+01  3.7143197320973982e+01  3.7690624250860154e+01  3.8163104780072906e+01  3.8572668053907627e+01  3.8929045038668114e+01  3.9240176763175356e+01  3.9512597378524681e+01  3.9751725262515066e+01  3.9962086143929625e+01  4.0147485595384772e+01  4.0311143514133555e+01  4.0455799830749932e+01  4.0583798260939290e+01  4.0697153166079289e+01  4.0797603317063370e+01  4.0886655425969820e+01  4.0965619624416419e+01  4.1035638558133307e+01  4.1097711386088761e+01  4.1152713685090973e+01  4.1201414042514152e+01  4.1244487952862272e+01  4.1282529505338736e+01  4.1316061249946870e+01  4.1345542551905304e+01  4.1371376683124872e+01  4.1393916851270589e+01  4.1413471328592038e+01  4.1430307812028872e+01  4.1444657121390250e+01  4.1456716322361792e+01  4.1466651344702186e+01  4.1474599152467825e+01  4.1480669511823628e+01  4.1484946392465304e+01  4.1487489030500996e+01  4.1488332673477210e+01  4.1487489021822839e+01  4.1484946375078195e+01  4.1480669485666247e+01  4.1474599117449031e+01  4.1466651300701912e+01  4.1456716269232693e+01  4.1444657058958796e+01  4.1430307740097675e+01  4.1413471246941889e+01  4.1393916759662858e+01  4.1371376581304290e+01  4.1345542439602859e+01  4.1316061126882907e+01  4.1282529371226261e+01  4.1244487807410259e+01  4.1201413885431009e+01  4.1152713516087999e+01  4.1097711204883780e+01  4.1035638364453995e+01  4.0965619418003556e+01  4.0886655206580514e+01  4.0797603084473963e+01  4.0697152920087753e+01  4.0583798001367526e+01  4.0455799557445410e+01  4.0311143226970550e+01  4.0147485294264762e+01  3.9962085828781248e+01  3.9751724933292927e+01  3.9512597035207413e+01  3.9240176405762583e+01  3.8929044667176271e+01  3.8572667668364296e+01  3.8163104380509658e+01  3.7690623837303797e+01  3.7143196893435714e+01  3.6505816814282802e+01  3.5759585594382017e+01  3.4880481315138468e+01  3.3837698404150423e+01  3.2591438020412639e+01  3.1090052159205680e+01  2.9266598299195056e+01  2.7035350806135902e+01  2.4290095781336294e+01  2.0908888665835661e+01  1.6774883782712411e+01  1.1826719105342308e+01  6.1406082806991975e+00  0.0000000000000000e+00  0.0000000000000000e+00  5.0866176719169287e+00  9.9013650313785089e+00  1.4248419848592741e+01  1.8037599297204363e+01  2.1266548353704575e+01  2.3984529504559507e+01  2.6261331792307256e+01  2.8168447658430082e+01  2.9770322338859948e+01  3.1121564203672278e+01  3.2267029280728565e+01  3.3243023630338158e+01  3.4078772293065335e+01  3.4797798078623607e+01  3.5419092092960170e+01  3.5958061568756143e+01  3.6427279560282656e+01  3.6837071393781024e+01  3.7195971567616027e+01  3.7511079763837017e+01  3.7788338984999058e+01  3.8032753764213687e+01  3.8248562239166624e+01  3.8439372613812651e+01  3.8608272021194580e+01  3.8757913894159714e+01  3.8890588510002992e+01  3.9008280287791557e+01  3.9112714595631601e+01  3.9205396202736004e+01  3.9287641037796384e+01  3.9360602553551580e+01  3.9425293719847510e+01  3.9482605453287277e+01  3.9533322125418742e+01  3.9578134661837893e+01  3.9617651643000016e+01  3.9652408737456611e+01  3.9682876734776841e+01  3.9709468394848685e+01  3.9732544289738641e+01  3.9752417781639124e+01  3.9769359253959962e+01  3.9783599691009876e+01  3.9795333683942857e+01  3.9804721925900040e+01  3.9811893246919347e+01  3.9816946228693240e+01  3.9819950430210206e+01  3.9820947247370434e+01  3.9819950422524180e+01  3.9816946213290343e+01  3.9811893223738274e+01  3.9804721894849585e+01  3.9795333644902882e+01  3.9783599643832645e+01  3.9769359198471598e+01  3.9752417717641698e+01  3.9732544217012112e+01  3.9709468313153280e+01  3.9682876643855678e+01  3.9652408637038725e+01  3.9617651532803158e+01  3.9578134541571771e+01  3.9533321994788295e+01  3.9482605311996053e+01  3.9425293567600896e+01  3.9360602390060372e+01  3.9287640862779725e+01  3.9205396015924947e+01  3.9112714396771779e+01  3.9008280076645882e+01  3.8890588286353932e+01  3.8757913657811351e+01  3.8608271771973861e+01  3.8439372351570306e+01  3.8248561963777220e+01  3.8032753475575042e+01  3.7788338683030709e+01  3.7511079448477687e+01  3.7195971238819894e+01  3.6837071051512879e+01  3.6427279204511635e+01  3.5958061199447656e+01  3.5419091710066262e+01  3.4797797682071220e+01  3.4078771882742259e+01  3.3243023206076231e+01  3.2267028842283956e+01  3.1121563750702322e+01  2.9770321870896126e+01  2.8168447174846932e+01  2.6261331292287846e+01  2.3984528987058070e+01  2.1266547817409556e+01  1.8037598740504119e+01  1.4248419269540991e+01  9.9013644276400559e+00  5.0866170406538185e+00  0.0000000000000000e+00  0.0000000000000000e+00  4.3193521057994531e+00  8.4640024301764214e+00  1.2296759633081983e+01  1.5737349892967659e+01  1.8760048166682136e+01  2.1378522601748259e+01  2.3628643557613596e+01  2.5555178502879194e+01  2.7203567069836811e+01  2.8615719956417752e+01  2.9828367810596877e+01  3.0872801541849434e+01  3.1775269917768576e+01  3.2557624639394845e+01  3.3238006243005444e+01  3.3831478275115465e+01  3.4350576431449639e+01  3.4805767827520050e+01  3.5205827843914982e+01  3.5558146193774000e+01  3.5868974302773957e+01  3.6143624963671087e+01  3.6386633592200099e+01  3.6601888753838267e+01  3.6792738148065418e+01  3.6962074986969931e+01  3.7112408685433586e+01  3.7245922963599895e+01  3.7364523815335225e+01  3.7469879286639021e+01  3.7563452607352232e+01  3.7646529904810599e+01  3.7720243480618734e+01  3.7785591436725213e+01  3.7843454282911836e+01  3.7894609035687409e+01  3.7939741221430580e+01  3.7979455119043536e+01  3.8014282515171537e+01  3.8044690194941936e+01  3.8071086350642396e+01  3.8093826057799227e+01  3.8113215941175092e+01  3.8129518131042396e+01  3.8142953591736855e+01  3.8153704889165461e+01  3.8161918451017307e+01  3.8167706362385751e+01  3.8171147729947926e+01  3.8172289639402862e+01  3.8171147723253760e+01  3.8167706348965993e+01  3.8161918430809550e+01  3.8153704862076793e+01  3.8142953557644837e+01  3.8129518089796413e+01  3.8113215892597729e+01  3.8093826001688399e+01  3.8071086286773138e+01  3.8044690123068953e+01  3.8014282435031674e+01  3.7979455030358608e+01  3.7939741123910466e+01  3.7894608929032991e+01  3.7843454166818361e+01  3.7785591310885522e+01  3.7720243344726555e+01  3.7646529758563972e+01  3.7563452450456502e+01  3.7469879118810077e+01  3.7364523636302351e+01  3.7245922773108227e+01  3.7112408483246327e+01  3.6962074772870260e+01  3.6792737921857515e+01  3.6601888515348008e+01  3.6386633341275022e+01  3.6143624700179394e+01  3.5868974026602778e+01  3.5558145904826340e+01  3.5205827542105865e+01  3.4805767512770991e+01  3.4350576103681917e+01  3.3831477934241704e+01  3.3238005888919339e+01  3.2557624271959071e+01  3.1775269536800224e+01  3.0872801147103072e+01  2.9828367401744959e+01  2.8615719533027963e+01  2.7203566631346334e+01  2.5555178048565928e+01  2.3628643086564615e+01  2.1378522112826257e+01  1.8760047658490777e+01  1.5737349363815483e+01  1.2296759080941269e+01  8.4640018526283320e+00  4.3193514999551557e+00  0.0000000000000000e+00  0.0000000000000000e+00  3.7343323321011277e+00  7.3501017996389519e+00  1.0748829328579673e+01  1.3864398194807645e+01  1.6664846203707501e+01  1.9146393515796607e+01  2.1324411963406753e+01  2.3224940449923832e+01  2.4878349901475268e+01  2.6315309225024720e+01  2.7564563561563432e+01  2.8651925369791645e+01  2.9599989198973553e+01  3.0428234966663855e+01  3.1153312976284813e+01  3.1789392890969825e+01  3.2348514625031051e+01  3.2840911748627100e+01  3.3275296059378931e+01  3.3659101382254939e+01  3.3998689159939332e