<?xml version="1.0"?>
<VTKFile type="UnstructuredGrid"  version="0.1"  >
<UnstructuredGrid>
<Piece  NumberOfPoints="10201" NumberOfCells="20000">
<Points>
<DataArray  type="Float64"  NumberOfComponents="3"  format="ascii">0 0 0  0.01 0 0  0.02 0 0  0.03 0 0  0.04 0 0  0.05 0 0  0.06 0 0  0.07000000000000001 0 0  0.08 0 0  0.09 0 0  0.1 0 0  0.11 0 0  0.12 0 0  0.13 0 0  0.14 0 0  0.15 0 0  0.16 0 0  0.17 0 0  0.18 0 0  0.19 0 0  0.2 0 0  0.21 0 0  0.22 0 0  0.23 0 0  0.24 0 0  0.25 0 0  0.26 0 0  0.27 0 0  0.28 0 0  0.29 0 0  0.3 0 0  0.31 0 0  0.32 0 0  0.33 0 0  0.34 0 0  0.35 0 0  0.36 0 0  0.37 0 0  0.38 0 0  0.39 0 0  0.4 0 0  0.41 0 0  0.42 0 0  0.43 0 0  0.44 0 0  0.45 0 0  0.46 0 0  0.47 0 0  0.48 0 0  0.49 0 0  0.5 0 0  0.51 0 0  0.52 0 0  0.53 0 0  0.54 0 0  0.55 0 0  0.5600000000000001 0 0  0.57 0 0  0.58 0 0  0.59 0 0  0.6 0 0  0.61 0 0  0.62 0 0  0.63 0 0  0.64 0 0  0.65 0 0  0.66 0 0  0.67 0 0  0.68 0 0  0.6899999999999999 0 0  0.7 0 0  0.71 0 0  0.72 0 0  0.73 0 0  0.74 0 0  0.75 0 0  0.76 0 0  0.77 0 0  0.78 0 0  0.79 0 0  0.8 0 0  0.8100000000000001 0 0  0.82 0 0  0.83 0 0  0.84 0 0  0.85 0 0  0.86 0 0  0.87 0 0  0.88 0 0  0.89 0 0  0.9 0 0  0.91 0 0  0.92 0 0  0.93 0 0  0.9399999999999999 0 0  0.95 0 0  0.96 0 0  0.97 0 0  0.98 0 0  0.99 0 0  1 0 0  0 0.01 0  0.01 0.01 0  0.02 0.01 0  0.03 0.01 0  0.04 0.01 0  0.05 0.01 0  0.06 0.01 0  0.07000000000000001 0.01 0  0.08 0.01 0  0.09 0.01 0  0.1 0.01 0  0.11 0.01 0  0.12 0.01 0  0.13 0.01 0  0.14 0.01 0  0.15 0.01 0  0.16 0.01 0  0.17 0.01 0  0.18 0.01 0  0.19 0.01 0  0.2 0.01 0  0.21 0.01 0  0.22 0.01 0  0.23 0.01 0  0.24 0.01 0  0.25 0.01 0  0.26 0.01 0  0.27 0.01 0  0.28 0.01 0  0.29 0.01 0  0.3 0.01 0  0.31 0.01 0  0.32 0.01 0  0.33 0.01 0  0.34 0.01 0  0.35 0.01 0  0.36 0.01 0  0.37 0.01 0  0.38 0.01 0  0.39 0.01 0  0.4 0.01 0  0.41 0.01 0  0.42 0.01 0  0.43 0.01 0  0.44 0.01 0  0.45 0.01 0  0.46 0.01 0  0.47 0.01 0  0.48 0.01 0  0.49 0.01 0  0.5 0.01 0  0.51 0.01 0  0.52 0.01 0  0.53 0.01 0  0.54 0.01 0  0.55 0.01 0  0.5600000000000001 0.01 0  0.57 0.01 0  0.58 0.01 0  0.59 0.01 0  0.6 0.01 0  0.61 0.01 0  0.62 0.01 0  0.63 0.01 0  0.64 0.01 0  0.65 0.01 0  0.66 0.01 0  0.67 0.01 0  0.68 0.01 0  0.6899999999999999 0.01 0  0.7 0.01 0  0.71 0.01 0  0.72 0.01 0  0.73 0.01 0  0.74 0.01 0  0.75 0.01 0  0.76 0.01 0  0.77 0.01 0  0.78 0.01 0  0.79 0.01 0  0.8 0.01 0  0.8100000000000001 0.01 0  0.82 0.01 0  0.83 0.01 0  0.84 0.01 0  0.85 0.01 0  0.86 0.01 0  0.87 0.01 0  0.88 0.01 0  0.89 0.01 0  0.9 0.01 0  0.91 0.01 0  0.92 0.01 0  0.93 0.01 0  0.9399999999999999 0.01 0  0.95 0.01 0  0.96 0.01 0  0.97 0.01 0  0.98 0.01 0  0.99 0.01 0  1 0.01 0  0 0.02 0  0.01 0.02 0  0.02 0.02 0  0.03 0.02 0  0.04 0.02 0  0.05 0.02 0  0.06 0.02 0  0.07000000000000001 0.02 0  0.08 0.02 0  0.09 0.02 0  0.1 0.02 0  0.11 0.02 0  0.12 0.02 0  0.13 0.02 0  0.14 0.02 0  0.15 0.02 0  0.16 0.02 0  0.17 0.02 0  0.18 0.02 0  0.19 0.02 0  0.2 0.02 0  0.21 0.02 0  0.22 0.02 0  0.23 0.02 0  0.24 0.02 0  0.25 0.02 0  0.26 0.02 0  0.27 0.02 0  0.28 0.02 0  0.29 0.02 0  0.3 0.02 0  0.31 0.02 0  0.32 0.02 0  0.33 0.02 0  0.34 0.02 0  0.35 0.02 0  0.36 0.02 0  0.37 0.02 0  0.38 0.02 0  0.39 0.02 0  0.4 0.02 0  0.41 0.02 0  0.42 0.02 0  0.43 0.02 0  0.44 0.02 0  0.45 0.02 0  0.46 0.02 0  0.47 0.02 0  0.48 0.02 0  0.49 0.02 0  0.5 0.02 0  0.51 0.02 0  0.52 0.02 0  0.53 0.02 0  0.54 0.02 0  0.55 0.02 0  0.5600000000000001 0.02 0  0.57 0.02 0  0.58 0.02 0  0.59 0.02 0  0.6 0.02 0  0.61 0.02 0  0.62 0.02 0  0.63 0.02 0  0.64 0.02 0  0.65 0.02 0  0.66 0.02 0  0.67 0.02 0  0.68 0.02 0  0.6899999999999999 0.02 0  0.7 0.02 0  0.71 0.02 0  0.72 0.02 0  0.73 0.02 0  0.74 0.02 0  0.75 0.02 0  0.76 0.02 0  0.77 0.02 0  0.78 0.02 0  0.79 0.02 0  0.8 0.02 0  0.8100000000000001 0.02 0  0.82 0.02 0  0.83 0.02 0  0.84 0.02 0  0.85 0.02 0  0.86 0.02 0  0.87 0.02 0  0.88 0.02 0  0.89 0.02 0  0.9 0.02 0  0.91 0.02 0  0.92 0.02 0  0.93 0.02 0  0.9399999999999999 0.02 0  0.95 0.02 0  0.96 0.02 0  0.97 0.02 0  0.98 0.02 0  0.99 0.02 0  1 0.02 0  0 0.03 0  0.01 0.03 0  0.02 0.03 0  0.03 0.03 0  0.04 0.03 0  0.05 0.03 0  0.06 0.03 0  0.07000000000000001 0.03 0  0.08 0.03 0  0.09 0.03 0  0.1 0.03 0  0.11 0.03 0  0.12 0.03 0  0.13 0.03 0  0.14 0.03 0  0.15 0.03 0  0.16 0.03 0  0.17 0.03 0  0.18 0.03 0  0.19 0.03 0  0.2 0.03 0  0.21 0.03 0  0.22 0.03 0  0.23 0.03 0  0.24 0.03 0  0.25 0.03 0  0.26 0.03 0  0.27 0.03 0  0.28 0.03 0  0.29 0.03 0  0.3 0.03 0  0.31 0.03 0  0.32 0.03 0  0.33 0.03 0  0.34 0.03 0  0.35 0.03 0  0.36 0.03 0  0.37 0.03 0  0.38 0.03 0  0.39 0.03 0  0.4 0.03 0  0.41 0.03 0  0.42 0.03 0  0.43 0.03 0  0.44 0.03 0  0.45 0.03 0  0.46 0.03 0  0.47 0.03 0  0.48 0.03 0  0.49 0.03 0  0.5 0.03 0  0.51 0.03 0  0.52 0.03 0  0.53 0.03 0  0.54 0.03 0  0.55 0.03 0  0.5600000000000001 0.03 0  0.57 0.03 0  0.58 0.03 0  0.59 0.03 0  0.6 0.03 0  0.61 0.03 0  0.62 0.03 0  0.63 0.03 0  0.64 0.03 0  0.65 0.03 0  0.66 0.03 0  0.67 0.03 0  0.68 0.03 0  0.6899999999999999 0.03 0  0.7 0.03 0  0.71 0.03 0  0.72 0.03 0  0.73 0.03 0  0.74 0.03 0  0.75 0.03 0  0.76 0.03 0  0.77 0.03 0  0.78 0.03 0  0.79 0.03 0  0.8 0.03 0  0.8100000000000001 0.03 0  0.82 0.03 0  0.83 0.03 0  0.84 0.03 0  0.85 0.03 0  0.86 0.03 0  0.87 0.03 0  0.88 0.03 0  0.89 0.03 0  0.9 0.03 0  0.91 0.03 0  0.92 0.03 0  0.93 0.03 0  0.9399999999999999 0.03 0  0.95 0.03 0  0.96 0.03 0  0.97 0.03 0  0.98 0.03 0  0.99 0.03 0  1 0.03 0  0 0.04 0  0.01 0.04 0  0.02 0.04 0  0.03 0.04 0  0.04 0.04 0  0.05 0.04 0  0.06 0.04 0  0.07000000000000001 0.04 0  0.08 0.04 0  0.09 0.04 0  0.1 0.04 0  0.11 0.04 0  0.12 0.04 0  0.13 0.04 0  0.14 0.04 0  0.15 0.04 0  0.16 0.04 0  0.17 0.04 0  0.18 0.04 0  0.19 0.04 0  0.2 0.04 0  0.21 0.04 0  0.22 0.04 0  0.23 0.04 0  0.24 0.04 0  0.25 0.04 0  0.26 0.04 0  0.27 0.04 0  0.28 0.04 0  0.29 0.04 0  0.3 0.04 0  0.31 0.04 0  0.32 0.04 0  0.33 0.04 0  0.34 0.04 0  0.35 0.04 0  0.36 0.04 0  0.37 0.04 0  0.38 0.04 0  0.39 0.04 0  0.4 0.04 0  0.41 0.04 0  0.42 0.04 0  0.43 0.04 0  0.44 0.04 0  0.45 0.04 0  0.46 0.04 0  0.47 0.04 0  0.48 0.04 0  0.49 0.04 0  0.5 0.04 0  0.51 0.04 0  0.52 0.04 0  0.53 0.04 0  0.54 0.04 0  0.55 0.04 0  0.5600000000000001 0.04 0  0.57 0.04 0  0.58 0.04 0  0.59 0.04 0  0.6 0.04 0  0.61 0.04 0  0.62 0.04 0  0.63 0.04 0  0.64 0.04 0  0.65 0.04 0  0.66 0.04 0  0.67 0.04 0  0.68 0.04 0  0.6899999999999999 0.04 0  0.7 0.04 0  0.71 0.04 0  0.72 0.04 0  0.73 0.04 0  0.74 0.04 0  0.75 0.04 0  0.76 0.04 0  0.77 0.04 0  0.78 0.04 0  0.79 0.04 0  0.8 0.04 0  0.8100000000000001 0.04 0  0.82 0.04 0  0.83 0.04 0  0.84 0.04 0  0.85 0.04 0  0.86 0.04 0  0.87 0.04 0  0.88 0.04 0  0.89 0.04 0  0.9 0.04 0  0.91 0.04 0  0.92 0.04 0  0.93 0.04 0  0.9399999999999999 0.04 0  0.95 0.04 0  0.96 0.04 0  0.97 0.04 0  0.98 0.04 0  0.99 0.04 0  1 0.04 0  0 0.05 0  0.01 0.05 0  0.02 0.05 0  0.03 0.05 0  0.04 0.05 0  0.05 0.05 0  0.06 0.05 0  0.07000000000000001 0.05 0  0.08 0.05 0  0.09 0.05 0  0.1 0.05 0  0.11 0.05 0  0.12 0.05 0  0.13 0.05 0  0.14 0.05 0  0.15 0.05 0  0.16 0.05 0  0.17 0.05 0  0.18 0.05 0  0.19 0.05 0  0.2 0.05 0  0.21 0.05 0  0.22 0.05 0  0.23 0.05 0  0.24 0.05 0  0.25 0.05 0  0.26 0.05 0  0.27 0.05 0  0.28 0.05 0  0.29 0.05 0  0.3 0.05 0  0.31 0.05 0  0.32 0.05 0  0.33 0.05 0  0.34 0.05 0  0.35 0.05 0  0.36 0.05 0  0.37 0.05 0  0.38 0.05 0  0.39 0.05 0  0.4 0.05 0  0.41 0.05 0  0.42 0.05 0  0.43 0.05 0  0.44 0.05 0  0.45 0.05 0  0.46 0.05 0  0.47 0.05 0  0.48 0.05 0  0.49 0.05 0  0.5 0.05 0  0.51 0.05 0  0.52 0.05 0  0.53 0.05 0  0.54 0.05 0  0.55 0.05 0  0.5600000000000001 0.05 0  0.57 0.05 0  0.58 0.05 0  0.59 0.05 0  0.6 0.05 0  0.61 0.05 0  0.62 0.05 0  0.63 0.05 0  0.64 0.05 0  0.65 0.05 0  0.66 0.05 0  0.67 0.05 0  0.68 0.05 0  0.6899999999999999 0.05 0  0.7 0.05 0  0.71 0.05 0  0.72 0.05 0  0.73 0.05 0  0.74 0.05 0  0.75 0.05 0  0.76 0.05 0  0.77 0.05 0  0.78 0.05 0  0.79 0.05 0  0.8 0.05 0  0.8100000000000001 0.05 0  0.82 0.05 0  0.83 0.05 0  0.84 0.05 0  0.85 0.05 0  0.86 0.05 0  0.87 0.05 0  0.88 0.05 0  0.89 0.05 0  0.9 0.05 0  0.91 0.05 0  0.92 0.05 0  0.93 0.05 0  0.9399999999999999 0.05 0  0.95 0.05 0  0.96 0.05 0  0.97 0.05 0  0.98 0.05 0  0.99 0.05 0  1 0.05 0  0 0.06 0  0.01 0.06 0  0.02 0.06 0  0.03 0.06 0  0.04 0.06 0  0.05 0.06 0  0.06 0.06 0  0.07000000000000001 0.06 0  0.08 0.06 0  0.09 0.06 0  0.1 0.06 0  0.11 0.06 0  0.12 0.06 0  0.13 0.06 0  0.14 0.06 0  0.15 0.06 0  0.16 0.06 0  0.17 0.06 0  0.18 0.06 0  0.19 0.06 0  0.2 0.06 0  0.21 0.06 0  0.22 0.06 0  0.23 0.06 0  0.24 0.06 0  0.25 0.06 0  0.26 0.06 0  0.27 0.06 0  0.28 0.06 0  0.29 0.06 0  0.3 0.06 0  0.31 0.06 0  0.32 0.06 0  0.33 0.06 0  0.34 0.06 0  0.35 0.06 0  0.36 0.06 0  0.37 0.06 0  0.38 0.06 0  0.39 0.06 0  0.4 0.06 0  0.41 0.06 0  0.42 0.06 0  0.43 0.06 0  0.44 0.06 0  0.45 0.06 0  0.46 0.06 0  0.47 0.06 0  0.48 0.06 0  0.49 0.06 0  0.5 0.06 0  0.51 0.06 0  0.52 0.06 0  0.53 0.06 0  0.54 0.06 0  0.55 0.06 0  0.5600000000000001 0.06 0  0.57 0.06 0  0.58 0.06 0  0.59 0.06 0  0.6 0.06 0  0.61 0.06 0  0.62 0.06 0  0.63 0.06 0  0.64 0.06 0  0.65 0.06 0  0.66 0.06 0  0.67 0.06 0  0.68 0.06 0  0.6899999999999999 0.06 0  0.7 0.06 0  0.71 0.06 0  0.72 0.06 0  0.73 0.06 0  0.74 0.06 0  0.75 0.06 0  0.76 0.06 0  0.77 0.06 0  0.78 0.06 0  0.79 0.06 0  0.8 0.06 0  0.8100000000000001 0.06 0  0.82 0.06 0  0.83 0.06 0  0.84 0.06 0  0.85 0.06 0  0.86 0.06 0  0.87 0.06 0  0.88 0.06 0  0.89 0.06 0  0.9 0.06 0  0.91 0.06 0  0.92 0.06 0  0.93 0.06 0  0.9399999999999999 0.06 0  0.95 0.06 0  0.96 0.06 0  0.97 0.06 0  0.98 0.06 0  0.99 0.06 0  1 0.06 0  0 0.07000000000000001 0  0.01 0.07000000000000001 0  0.02 0.07000000000000001 0  0.03 0.07000000000000001 0  0.04 0.07000000000000001 0  0.05 0.07000000000000001 0  0.06 0.07000000000000001 0  0.07000000000000001 0.07000000000000001 0  0.08 0.07000000000000001 0  0.09 0.07000000000000001 0  0.1 0.07000000000000001 0  0.11 0.07000000000000001 0  0.12 0.07000000000000001 0  0.13 0.07000000000000001 0  0.14 0.07000000000000001 0  0.15 0.07000000000000001 0  0.16 0.07000000000000001 0  0.17 0.0700
[...]
<PointData  Scalars="f_17"> 
<DataArray  type="Float64"  Name="f_17"  format="ascii">0.0000000000000000e+00  5.0000000000000000e+01  5.0000000000000000e+01  5.0000000000000000e+01  5.0000000000000000e+01  5.0000000000000000e+01  5.0000000000000000e+01  5.0000000000000000e+01  5.0000000000000000e+01  5.0000000000000000e+01  5.0000000000000000e+01  5.0000000000000000e+01  5.0000000000000000e+01  5.0000000000000000e+01  5.0000000000000000e+01  5.0000000000000000e+01  5.0000000000000000e+01  5.0000000000000000e+01  5.0000000000000000e+01  5.0000000000000000e+01  5.0000000000000000e+01  5.0000000000000000e+01  5.0000000000000000e+01  5.0000000000000000e+01  5.0000000000000000e+01  5.0000000000000000e+01  5.0000000000000000e+01  5.0000000000000000e+01  5.0000000000000000e+01  5.0000000000000000e+01  5.0000000000000000e+01  5.0000000000000000e+01  5.0000000000000000e+01  5.0000000000000000e+01  5.0000000000000000e+01  5.0000000000000000e+01  5.0000000000000000e+01  5.0000000000000000e+01  5.0000000000000000e+01  5.0000000000000000e+01  5.0000000000000000e+01  5.0000000000000000e+01  5.0000000000000000e+01  5.0000000000000000e+01  5.0000000000000000e+01  5.0000000000000000e+01  5.0000000000000000e+01  5.0000000000000000e+01  5.0000000000000000e+01  5.0000000000000000e+01  5.0000000000000000e+01  5.0000000000000000e+01  5.0000000000000000e+01  5.0000000000000000e+01  5.0000000000000000e+01  5.0000000000000000e+01  5.0000000000000000e+01  5.0000000000000000e+01  5.0000000000000000e+01  5.0000000000000000e+01  5.0000000000000000e+01  5.0000000000000000e+01  5.0000000000000000e+01  5.0000000000000000e+01  5.0000000000000000e+01  5.0000000000000000e+01  5.0000000000000000e+01  5.0000000000000000e+01  5.0000000000000000e+01  5.0000000000000000e+01  5.0000000000000000e+01  5.0000000000000000e+01  5.0000000000000000e+01  5.0000000000000000e+01  5.0000000000000000e+01  5.0000000000000000e+01  5.0000000000000000e+01  5.0000000000000000e+01  5.0000000000000000e+01  5.0000000000000000e+01  5.0000000000000000e+01  5.0000000000000000e+01  5.0000000000000000e+01  5.0000000000000000e+01  5.0000000000000000e+01  5.0000000000000000e+01  5.0000000000000000e+01  5.0000000000000000e+01  5.0000000000000000e+01  5.0000000000000000e+01  5.0000000000000000e+01  5.0000000000000000e+01  5.0000000000000000e+01  5.0000000000000000e+01  5.0000000000000000e+01  5.0000000000000000e+01  5.0000000000000000e+01  5.0000000000000000e+01  5.0000000000000000e+01  5.0000000000000000e+01  0.0000000000000000e+00  0.0000000000000000e+00  2.4919761027109491e+01  3.5093364886487727e+01  3.9520465238839357e+01  4.1883698810933851e+01  4.3319808164981694e+01  4.4268962585635371e+01  4.4933024145527448e+01  4.5416706659039249e+01  4.5779522395969813e+01  4.6057734155595753e+01  4.6274679194649416e+01  4.6446050065786267e+01  4.6582784212415895e+01  4.6692734862470232e+01  4.6781682758294920e+01  4.6853973163060147e+01  4.6912930642851066e+01  4.6961137181092830e+01  4.7000623541055155e+01  4.7033004007990655e+01  4.7059573252292857e+01  4.7081377283307788e+01  4.7099266321026548e+01  4.7113934813648271e+01  4.7125952160467541e+01  4.7135786606285173e+01  4.7143824043826939e+01  4.7150382965354744e+01  4.7155726463271115e+01  4.7160071940893665e+01  4.7163599025587175e+01  4.7166456055293231e+01  4.7168765421625956e+01  4.7170627988240881e+01  4.7172126755363337e+01  4.7173329905488593e+01  4.7174293338037700e+01  4.7175062779853420e+01  4.7175675542174837e+01  4.7176161981950294e+01  4.7176546715166580e+01  4.7176849621658143e+01  4.7177086674145635e+01  4.7177270618698124e+01  4.7177411529155258e+01  4.7177517254091342e+01  4.7177593771498955e+01  4.7177645463400232e+01  4.7177675319957785e+01  4.7177685080282998e+01  4.7177675314950811e+01  4.7177645453178009e+01  4.7177593755639982e+01  4.7177517231950908e+01  4.7177411499850066e+01  4.7177270581086461e+01  4.7177086626802975e+01  4.7176849562847977e+01  4.7176546642807295e+01  4.7176161893578431e+01  4.7175675434905450e+01  4.7175062650338134e+01  4.7174293182421714e+01  4.7173329719367622e+01  4.7172126533742365e+01  4.7170627725496082e+01  4.7168765111472133e+01  4.7166455690758326e+01  4.7163598598997353e+01  4.7160071443870592e+01  4.7155725886744129e+01  4.7150382299591250e+01  4.7143823278482685e+01  4.7135785730476989e+01  4.7125951162870201e+01  4.7113933682616484e+01  4.7099265044742914e+01  4.7081375849955421e+01  4.7059571650251726e+01  4.7033002226054258e+01  4.7000621568663917e+01  4.6961135008577806e+01  4.6912928261681671e+01  4.6853970566087320e+01  4.6781679939979369e+01  4.6692731819085807e+01  4.6582780942214917e+01  4.6446046569114159e+01  4.6274675473992943e+01  4.6057730215548133e+01  4.5779518243089910e+01  4.5416702301574183e+01  4.4933019592944156e+01  4.4268957847849833e+01  4.3319803251013049e+01  4.1883693726173036e+01  3.9520459978001711e+01  3.5093359409125007e+01  2.4919755143098875e+01  0.0000000000000000e+00  0.0000000000000000e+00  1.4586506080449819e+01  2.4680699047120989e+01  3.0807040342192437e+01  3.4607056863705509e+01  3.7097321039140397e+01  3.8813619303100715e+01  4.0045178132789118e+01  4.0956993702135655e+01  4.1648615459950868e+01  4.2183172537641454e+01  4.2602443604580834e+01  4.2935098034313192e+01  4.3201424085516038e+01  4.3416159942772893e+01  4.3590253857049852e+01  4.3731995399378100e+01  4.3847764203828966e+01  4.3942538685126245e+01  4.4020249895479580e+01  4.4084032947617260e+01  4.4136409142375662e+01  4.4179420251063299e+01  4.4214729138466531e+01  4.4243696292766195e+01  4.4267438829226073e+01  4.4286876549983674e+01  4.4302768306478768e+01  4.4315740997722862e+01  4.4326312904083416e+01  4.4334912610936556e+01  4.4341894459611240e+01  4.4347551234840985e+01  4.4352124631756816e+01  4.4355813923111512e+01  4.4358783156363614e+01  4.4361167141729673e+01  4.4363076440161549e+01  4.4364601520060596e+01  4.4365816220262296e+01  4.4366780632150778e+01  4.4367543494066631e+01  4.4368144175233319e+01  4.4368614313380391e+01  4.4368979159418252e+01  4.4369258673427538e+01  4.4369468408493248e+01  4.4369620212244882e+01  4.4369722770137237e+01  4.4369782009326840e+01  4.4369801377327512e+01  4.4369782005321234e+01  4.4369722761951770e+01  4.4369620199526608e+01  4.4369468390701606e+01  4.4369258649820708e+01  4.4368979129035104e+01  4.4368614275018793e+01  4.4368144127423818e+01  4.4367543435042364e+01  4.4366780559814089e+01  4.4365816132148680e+01  4.4364601413300235e+01  4.4363076311439443e+01  4.4361166987246065e+01  4.4358782971794810e+01  4.4355813703574384e+01  4.4352124371776981e+01  4.4347550928327777e+01  4.4341894099841852e+01  4.4334912190550980e+01  4.4326312415092623e+01  4.4315740431533641e+01  4.4302767653936407e+01  4.4286875801434917e+01  4.4267437974603681e+01  4.4243695321696237e+01  4.4214728040398668e+01  4.4179419015422845e+01  4.4136407758735217e+01  4.4084031405885391e+01  4.4020248186101590e+01  4.3942536799290153e+01  4.3847762133669441e+01  4.3731993138168782e+01  4.3590251399373010e+01  4.3416157284653302e+01  4.3201421224504926e+01  4.2935094969505585e+01  4.2602440336546884e+01  4.2183169068248596e+01  4.1648611792044655e+01  4.0956989839035288e+01  4.0045174077523157e+01  3.8813615057248079e+01  3.7097316601009858e+01  3.4607052225314149e+01  3.0807035484180986e+01  2.4680693933071542e+01  1.4586500687017717e+01  0.0000000000000000e+00  0.0000000000000000e+00  1.0001407819385651e+01  1.8239182054728129e+01  2.4287747761600940e+01  2.8570215186684010e+01  3.1619144032519703e+01  3.3833556293442875e+01  3.5478010950743865e+01  3.6724277078362050e+01  3.7685273296537225e+01  3.8436986705432972e+01  3.9031893475998778e+01  3.9507155910312683e+01  3.9889707956857528e+01  4.0199480695564127e+01  4.0451497329768166e+01  4.0657266266069044e+01  4.0825728443948059e+01  4.0963915235617733e+01  4.1077414392057662e+01  4.1170706119170426e+01  4.1247409633222780e+01  4.1310466921852608e+01  4.1362281730251404e+01  4.1404826124343835e+01  4.1439723229352964e+01  4.1468312216495065e+01  4.1491699885733667e+01  4.1510801998331324e+01  4.1526376675513575e+01  4.1539051585264453e+01  4.1549346212739380e+01  4.1557690200345682e+01  4.1564438516688647e+01  4.1569884045552989e+01  4.1574268060329871e+01  4.1577788954172711e+01  4.1580609523421963e+01  4.1582863045576900e+01  4.1584658349065279e+01  4.1586084037190666e+01  4.1587212000674157e+01  4.1588100330505220e+01  4.1588795724151353e+01  4.1589335462640847e+01  4.1589749022940424e+01  4.1590059378874010e+01  4.1590284034169045e+01  4.1590435822745469e+01  4.1590523503825516e+01  4.1590552172620100e+01  4.1590523501054477e+01  4.1590435817068119e+01  4.1590284025310694e+01  4.1590059366412511e+01  4.1589749006294014e+01  4.1589335441051873e+01  4.1588795696666160e+01  4.1588100295950234e+01  4.1587211957628078e+01  4.1586083983953444e+01  4.1584658283623973e+01  4.1582862965568992e+01  4.1580609426097254e+01  4.1577788836354117e+01  4.1574267918374844e+01  4.1569883875316556e+01  4.1564438313490086e+01  4.1557689958940536e+01  4.1549345927298759e+01  4.1539051249364562e+01  4.1526376282136894e+01  4.1510801539882515e+01  4.1491699354072431e+01  4.1468311602987370e+01  4.1439722524942979e+01  4.1404825319646832e+01  4.1362280815668051e+01  4.1310465887703771e+01  4.1247408469902858e+01  4.1170704817315062e+01  4.1077412942721473e+01  4.0963913630455004e+01  4.0825726675387031e+01  4.0657264327470735e+01  4.0451495215556285e+01  4.0199478401311687e+01  3.9889705479314486e+01  3.9507153247354736e+01  3.9031890626475800e+01  3.8436983668890420e+01  3.7685270072777094e+01  3.6724273666798325e+01  3.5478007349489154e+01  3.3833552498035836e+01  3.1619140034179633e+01  2.8570210970051182e+01  2.4287743302490583e+01  1.8239177320685219e+01  1.0001402775738908e+01  0.0000000000000000e+00  0.0000000000000000e+00  7.4826228258059180e+00  1.4128869693119041e+01  1.9541840708891339e+01  2.3748920720350068e+01  2.6964536202311685e+01  2.9422587575952111e+01  3.1316001147464842e+01  3.2789437848587951e+01  3.3947984419571220e+01  3.4867611100407750e+01  3.5603629551970016e+01  3.6196804578132401e+01  3.6677603464912259e+01  3.7069121987000301e+01  3.7389105960467489e+01  3.7651361336092137e+01  3.7866750152282776e+01  3.8043903729392127e+01  3.8189740660502260e+01  3.8309848352598692e+01  3.8408767938960928e+01  3.8490209859877986e+01  3.8557219047977071e+01  3.8612303012960680e+01  3.8657532270963586e+01  3.8694619907108361e+01  3.8724985206089059e+01  3.8749804978199741e+01  3.8770055276611899e+01  3.8786545531275621e+01  3.8799946637710057e+01  3.8810814181701154e+01  3.8819607716469349e+01  3.8826706811256216e+01  3.8832424441181928e+01  3.8837018174604999e+01  3.8840699526718630e+01  3.8843641779995920e+01  3.8845986518448051e+01  3.8847849079910269e+01  3.8849323096086025e+01  3.8850484261924855e+01  3.8851393452638327e+01  3.8852099287185837e+01  3.8852640220574287e+01  3.8853046233178844e+01  3.8853340173018921e+01  3.8853538796122834e+01  3.8853653540473154e+01  3.8853691060268268e+01  3.8853653539145775e+01  3.8853538793375847e+01  3.8853340168664168e+01  3.8853046226924924e+01  3.8852640212015174e+01  3.8852099275786379e+01  3.8851393437715309e+01  3.8850484242624468e+01  3.8849323071357546e+01  3.8847849048476306e+01  3.8845986478771025e+01  3.8843641730241842e+01  3.8840699464718249e+01  3.8837018097813484e+01  3.8832424346637872e+01  3.8826706695540999e+01  3.8819607575669011e+01  3.8810814011372315e+01  3.8799946432851762e+01  3.8786545286309817e+01  3.8770054985374550e+01  3.8749804633945786e+01  3.8724984801512726e+01  3.8694619434381721e+01  3.8657531721795173e+01  3.8612302378675025e+01  3.8557218319615401e+01  3.8490209028320130e+01  3.8408766995065513e+01  3.8309847287358494e+01  3.8189739465209520e+01  3.8043902395806143e+01  3.7866748672790912e+01  3.7651359703852840e+01  3.7389104169521595e+01  3.7069120032334986e+01  3.6677601342459752e+01  3.6196802284683024e+01  3.5603627084976260e+01  3.4867608457652949e+01  3.3947981598672087e+01  3.2789434846294355e+01  3.1315997958715361e+01  2.9422584192646536e+01  2.6964532611790695e+01  2.3748916903689615e+01  1.9541836639387927e+01  1.4128865335417627e+01  7.4826181341191598e+00  0.0000000000000000e+00  0.0000000000000000e+00  5.8941633155009185e+00  1.1334695109890134e+01  1.6039007849240384e+01  1.9931726313020555e+01  2.3075021429807510e+01  2.5586509384026371e+01  2.7588858771903716e+01  2.9188953927825604e+01  3.0473131255064377e+01  3.1508879468700421e+01  3.2348324496735231e+01  3.3031672374551313e+01  3.3590063908917621e+01  3.4047784248972938e+01  3.4423923702765435e+01  3.4733612483765462e+01  3.4988937414384665e+01  3.5199625150985547e+01  3.5373554898188452e+01  3.5517146460184883e+01  3.5635656715973852e+01  3.5733408358145880e+01  3.5813968115898696e+01  3.5880286964092939e+01  3.5934811453407185e+01  3.5979572886250075e+01  3.6016259328630298e+01  3.6046274192631614e+01  3.6070784209316805e+01  3.6090758940739960e+01  3.6107003483857802e+01  3.6120185650022009e+01  3.6130858626873525e+01  3.6139479920103099e+01  3.6146427212861688e+01  3.6152011657690878e+01  3.6156489020294508e+01  3.6160069019415282e+01  3.6162923147464717e+01  3.6165191208658413e+01  3.6166986772469166e+01  3.6168401708175750e+01  3.6169509939616624e+01  3.6170370536789996e+01  3.6171030241796018e+01  3.6171525510102690e+01  3.6171884133703252e+01  3.6172126499985836e+01  3.6172266528705421e+01  3.6172312319033381e+01  3.6172266529002556e+01  3.6172126500534354e+01  3.6171884134408280e+01  3.6171525510813396e+01  3.6171030242295252e+01  3.6170370536780347e+01  3.6169509938702546e+01  3.6168401705842022e+01  3.6166986768055004e+01  3.6165191201327794e+01  3.6162923136172473e+01  3.6160069002869690e+01  3.6156488996916231e+01  3.6152011625569259e+01  3.6146427169709057e+01  3.6139479863208315e+01  3.6130858553056228e+01  3.6120185555589622e+01  3.6107003364567092e+01  3.6090758791765786e+01  3.6070784025230736e+01  3.6046273967393233e+01  3.6016259055593700e+01  3.5979572558188750e+01  3.5934811062559177e+01  3.5880286502227939e+01  3.5813967574408252e+01  3.5733407728156088e+01  3.5635655988478845e+01  3.5517145626197994e+01  3.5373553948905219e+01  3.5199624077951725e+01  3.4988936209659016e+01  3.4733611140065477e+01  3.4423922213581463e+01  3.4047782608633973e+01  3.3590062112589656e+01  3.3031670418147314e+01  3.2348322376713483e+01  3.1508877181726284e+01  3.0473128797509290e+01  2.9188951295077008e+01  2.7588855957462751e+01  2.5586506378383248e+01  2.3075018219114853e+01  1.9931722877638958e+01  1.6039004162256987e+01  1.1334691135505111e+01  5.8941590065099678e+00  0.0000000000000000e+00  0.0000000000000000e+00  4.7965649320252490e+00  9.3222779774835089e+00  1.3382327028527639e+01  1.6887514094887006e+01  1.9836434379122846e+01  2.2279255584453772e+01  2.4286617490363824e+01  2.5930800430147507e+01  2.7276967569015397e+01  2.8380369480098004e+01  2.9286424324987230e+01  3.0031917333452608e+01  3.0646468293784238e+01  3.1153910275196612e+01  3.1573461400625142e+01  3.1920675128608590e+01  3.2208193476083558e+01  3.2446337927159874e+01  3.2643571564780778e+01  3.2806860923958595e+01  3.2941960417215896e+01  3.3053637121527068e+01  3.3145849567546243e+01  3.3221890917044796e+01  3.3284504419028963e+01  3.3335977144993173e+01  3.3378216580750376e+01  3.3412813583092387e+01  3.3441094405845618e+01  3.3464163894474339e+01  3.3482941490768475e+01  3.3498191341708562e+01  3.3510547541383765e+01  3.3520535331113187e+01  3.3528588925301698e+01  3.3535066507625878e+01  3.3540262845395532e+01  3.3544419893044669e+01  3.3547735693952696e+01  3.3550371839650026e+01  3.3552459704279094e+01  3.3554105637967602e+01  3.3555395274026282e+01  3.3556397080454396e+01  3.3557165265249907e+01  3.3557742126785499e+01  3.3558159924484869e+01  3.3558442330775634e+01  3.3558605512437985e+01  3.3558658877703699e+01  3.3558605514508962e+01  3.3558442334920976e+01  3.3558159930708186e+01  3.3557742135084190e+01  3.3557165275605392e+01  3.3556397092818614e+01  3.3555395288304354e+01  3.3554105653996508e+01  3.3552459721801597e+01  3.3550371858284194e+01  3.3547735713156449e+01  3.3544419912075917e+01  3.3540262863267252e+01  3.3535066523057367e+01  3.3528588936666317e+01  3.3520535336383780e+01  3.3510547538077248e+01  3.3498191326831510e+01  3.3482941460765950e+01  3.3464163845184856e+01  3.3441094332464822e+01  3.3412813480149076e+01  3.3378216442098037e+01  3.3335976963820258e+01  3.3284504187890981e+01  3.3221890627920530e+01  3.3145849211919611e+01  3.3053636690494969e+01  3.2941959901620905e+01  3.2806860314543393e+01  3.2643570852359133e+01  3.2446337102796917e+01  3.2208192531275245e+01  3.1920674055447218e+01  3.1573460191936590e+01  3.1153908924631111e+01  3.0646466795841185e+01  3.0031915683417832e+01  2.9286422518760347e+01  2.8380367513886846e+01  2.7276965438875454e+01  2.5930798131347931e+01  2.4286615016568312e+01  2.2279252926717298e+01  1.9836431524725025e+01  1.6887511026039526e+01  1.3382323720977695e+01  9.3222743989503112e+00  4.7965610402919676e+00  0.0000000000000000e+00  0.0000000000000000e+00  3.9886107663115631e+00  7.8036787165396051e+00  1.1309161104612285e+01  1.4425904486718130e+01  1.7129264918562043e+01  1.9433940562864496e+01  2.1376769957583434e+01  2.3003417411768091e+01  2.4360139972301376e+01  2.5489579771721388e+01  2.6429107968249884e+01  2.7210561754249223e+01  2.7860640279570244e+01  2.8401549631138792e+01  2.8851690127782092e+01  2.9226293256834794e+01  2.9537974797448403e+01  2.9797199133098303e+01  3.0012662018432938e+01  3.0191603263539601e+01  3.0340061241133309e+01  3.0463079998938738e+01  3.0564878134068820e+01  3.0648986942590373e+01  3.0718363891282607e+01  3.0775486227609175e+01  3.0822428544335999e+01  3.0860927319147915e+01  3.0892434822771744e+01  3.0918164298602285e+01  3.0939127934063059e+01  3.0956168845306244e+01  3.0969988063448856e+01  3.0981167327453981e+01  3.0990188344418506e+01  3.0997449063478101e+01  3.1003277417928913e+01  3.1007942916247938e+01  3.1011666402469860e+01  3.1014628256802425e+01  3.1016975266112805e+01  3.1018826359225390e+01  3.1020277372483175e+01  3.1021404985693998e+01  3.1022269946600076e+01  3.1022919682734081e+01  3.1023390382443040e+01  3.1023708611552149e+01  3.1023892518248264e+01  3.1023952665978076e+01  3.1023892522208399e+01  3.1023708619526783e+01  3.1023390394537870e+01  3.1022919699100093e+01  3.1022269967423810e+01  3.1021405011184520e+01  3.1020277402854774e+01  3.1018826394675926e+01  3.1016975306796827e+01  3.1014628302799004e+01  3.1011666453744919e+01  3.1007942972610433e+01  3.1003277478981186e+01  3.0997449128560433e+01  3.0990188412548854e+01  3.0981167397263498e+01  3.0969988133114935e+01  3.0956168912484888e+01  3.0939127995823121e+01  3.0918164351364780e+01  3.0892434862257055e+01  3.0860927340335301e+01  3.0822428541439020e+01  3.0775486194071249e+01  3.0718363819796576e+01  3.0648986825144906e+01  3.0564877962024614e+01  3.0463079763135205e+01  3.0340060932025590e+01  3.0191602871363287e+01  3.0012661533391849e+01  2.9797198545567532e+01  2.9537974098183216e+01  2.9226292437171619e+01  2.8851689179816251e+01  2.8401548547860799e+01  2.7860639054940027e+01  2.7210560383186913e+01  2.6429106446521089e+01  2.5489578095695450e+01  2.4360138138563986e+01  2.3003415416574232e+01  2.1376767796144954e+01  1.9433938228477359e+01  1.7129262401591987e+01  1.4425901773472514e+01  1.1309158176124825e+01  7.8036755472903288e+00  3.9886073229142087e+00  0.0000000000000000e+00  0.0000000000000000e+00  3.3661640662059638e+00  6.6150522203583959e+00  9.6494600250762730e+00  1.2404514578473309e+01  1.4849454022282764e+01  1.6981642294791634e+01  1.8817526536331073e+01  2.0384141959778965e+01  2.1712767835068963e+01  2.2834886174654663e+01  2.3779954493091473e+01  2.4574393211570339e+01  2.5241298553793101e+01  2.5800545691823935e+01  2.6269075279472258e+01  2.6661245457411926e+01  2.6989187130826426e+01  2.7263132933176042e+01  2.7491708333590172e+01  2.7682182745725118e+01  2.7840682996226167e