<?xml version="1.0"?>
<VTKFile type="UnstructuredGrid"  version="0.1"  >
<UnstructuredGrid>
<Piece  NumberOfPoints="10201" NumberOfCells="20000">
<Points>
<DataArray  type="Float64"  NumberOfComponents="3"  format="ascii">0 0 0  0.01 0 0  0.02 0 0  0.03 0 0  0.04 0 0  0.05 0 0  0.06 0 0  0.07000000000000001 0 0  0.08 0 0  0.09 0 0  0.1 0 0  0.11 0 0  0.12 0 0  0.13 0 0  0.14 0 0  0.15 0 0  0.16 0 0  0.17 0 0  0.18 0 0  0.19 0 0  0.2 0 0  0.21 0 0  0.22 0 0  0.23 0 0  0.24 0 0  0.25 0 0  0.26 0 0  0.27 0 0  0.28 0 0  0.29 0 0  0.3 0 0  0.31 0 0  0.32 0 0  0.33 0 0  0.34 0 0  0.35 0 0  0.36 0 0  0.37 0 0  0.38 0 0  0.39 0 0  0.4 0 0  0.41 0 0  0.42 0 0  0.43 0 0  0.44 0 0  0.45 0 0  0.46 0 0  0.47 0 0  0.48 0 0  0.49 0 0  0.5 0 0  0.51 0 0  0.52 0 0  0.53 0 0  0.54 0 0  0.55 0 0  0.5600000000000001 0 0  0.57 0 0  0.58 0 0  0.59 0 0  0.6 0 0  0.61 0 0  0.62 0 0  0.63 0 0  0.64 0 0  0.65 0 0  0.66 0 0  0.67 0 0  0.68 0 0  0.6899999999999999 0 0  0.7 0 0  0.71 0 0  0.72 0 0  0.73 0 0  0.74 0 0  0.75 0 0  0.76 0 0  0.77 0 0  0.78 0 0  0.79 0 0  0.8 0 0  0.8100000000000001 0 0  0.82 0 0  0.83 0 0  0.84 0 0  0.85 0 0  0.86 0 0  0.87 0 0  0.88 0 0  0.89 0 0  0.9 0 0  0.91 0 0  0.92 0 0  0.93 0 0  0.9399999999999999 0 0  0.95 0 0  0.96 0 0  0.97 0 0  0.98 0 0  0.99 0 0  1 0 0  0 0.01 0  0.01 0.01 0  0.02 0.01 0  0.03 0.01 0  0.04 0.01 0  0.05 0.01 0  0.06 0.01 0  0.07000000000000001 0.01 0  0.08 0.01 0  0.09 0.01 0  0.1 0.01 0  0.11 0.01 0  0.12 0.01 0  0.13 0.01 0  0.14 0.01 0  0.15 0.01 0  0.16 0.01 0  0.17 0.01 0  0.18 0.01 0  0.19 0.01 0  0.2 0.01 0  0.21 0.01 0  0.22 0.01 0  0.23 0.01 0  0.24 0.01 0  0.25 0.01 0  0.26 0.01 0  0.27 0.01 0  0.28 0.01 0  0.29 0.01 0  0.3 0.01 0  0.31 0.01 0  0.32 0.01 0  0.33 0.01 0  0.34 0.01 0  0.35 0.01 0  0.36 0.01 0  0.37 0.01 0  0.38 0.01 0  0.39 0.01 0  0.4 0.01 0  0.41 0.01 0  0.42 0.01 0  0.43 0.01 0  0.44 0.01 0  0.45 0.01 0  0.46 0.01 0  0.47 0.01 0  0.48 0.01 0  0.49 0.01 0  0.5 0.01 0  0.51 0.01 0  0.52 0.01 0  0.53 0.01 0  0.54 0.01 0  0.55 0.01 0  0.5600000000000001 0.01 0  0.57 0.01 0  0.58 0.01 0  0.59 0.01 0  0.6 0.01 0  0.61 0.01 0  0.62 0.01 0  0.63 0.01 0  0.64 0.01 0  0.65 0.01 0  0.66 0.01 0  0.67 0.01 0  0.68 0.01 0  0.6899999999999999 0.01 0  0.7 0.01 0  0.71 0.01 0  0.72 0.01 0  0.73 0.01 0  0.74 0.01 0  0.75 0.01 0  0.76 0.01 0  0.77 0.01 0  0.78 0.01 0  0.79 0.01 0  0.8 0.01 0  0.8100000000000001 0.01 0  0.82 0.01 0  0.83 0.01 0  0.84 0.01 0  0.85 0.01 0  0.86 0.01 0  0.87 0.01 0  0.88 0.01 0  0.89 0.01 0  0.9 0.01 0  0.91 0.01 0  0.92 0.01 0  0.93 0.01 0  0.9399999999999999 0.01 0  0.95 0.01 0  0.96 0.01 0  0.97 0.01 0  0.98 0.01 0  0.99 0.01 0  1 0.01 0  0 0.02 0  0.01 0.02 0  0.02 0.02 0  0.03 0.02 0  0.04 0.02 0  0.05 0.02 0  0.06 0.02 0  0.07000000000000001 0.02 0  0.08 0.02 0  0.09 0.02 0  0.1 0.02 0  0.11 0.02 0  0.12 0.02 0  0.13 0.02 0  0.14 0.02 0  0.15 0.02 0  0.16 0.02 0  0.17 0.02 0  0.18 0.02 0  0.19 0.02 0  0.2 0.02 0  0.21 0.02 0  0.22 0.02 0  0.23 0.02 0  0.24 0.02 0  0.25 0.02 0  0.26 0.02 0  0.27 0.02 0  0.28 0.02 0  0.29 0.02 0  0.3 0.02 0  0.31 0.02 0  0.32 0.02 0  0.33 0.02 0  0.34 0.02 0  0.35 0.02 0  0.36 0.02 0  0.37 0.02 0  0.38 0.02 0  0.39 0.02 0  0.4 0.02 0  0.41 0.02 0  0.42 0.02 0  0.43 0.02 0  0.44 0.02 0  0.45 0.02 0  0.46 0.02 0  0.47 0.02 0  0.48 0.02 0  0.49 0.02 0  0.5 0.02 0  0.51 0.02 0  0.52 0.02 0  0.53 0.02 0  0.54 0.02 0  0.55 0.02 0  0.5600000000000001 0.02 0  0.57 0.02 0  0.58 0.02 0  0.59 0.02 0  0.6 0.02 0  0.61 0.02 0  0.62 0.02 0  0.63 0.02 0  0.64 0.02 0  0.65 0.02 0  0.66 0.02 0  0.67 0.02 0  0.68 0.02 0  0.6899999999999999 0.02 0  0.7 0.02 0  0.71 0.02 0  0.72 0.02 0  0.73 0.02 0  0.74 0.02 0  0.75 0.02 0  0.76 0.02 0  0.77 0.02 0  0.78 0.02 0  0.79 0.02 0  0.8 0.02 0  0.8100000000000001 0.02 0  0.82 0.02 0  0.83 0.02 0  0.84 0.02 0  0.85 0.02 0  0.86 0.02 0  0.87 0.02 0  0.88 0.02 0  0.89 0.02 0  0.9 0.02 0  0.91 0.02 0  0.92 0.02 0  0.93 0.02 0  0.9399999999999999 0.02 0  0.95 0.02 0  0.96 0.02 0  0.97 0.02 0  0.98 0.02 0  0.99 0.02 0  1 0.02 0  0 0.03 0  0.01 0.03 0  0.02 0.03 0  0.03 0.03 0  0.04 0.03 0  0.05 0.03 0  0.06 0.03 0  0.07000000000000001 0.03 0  0.08 0.03 0  0.09 0.03 0  0.1 0.03 0  0.11 0.03 0  0.12 0.03 0  0.13 0.03 0  0.14 0.03 0  0.15 0.03 0  0.16 0.03 0  0.17 0.03 0  0.18 0.03 0  0.19 0.03 0  0.2 0.03 0  0.21 0.03 0  0.22 0.03 0  0.23 0.03 0  0.24 0.03 0  0.25 0.03 0  0.26 0.03 0  0.27 0.03 0  0.28 0.03 0  0.29 0.03 0  0.3 0.03 0  0.31 0.03 0  0.32 0.03 0  0.33 0.03 0  0.34 0.03 0  0.35 0.03 0  0.36 0.03 0  0.37 0.03 0  0.38 0.03 0  0.39 0.03 0  0.4 0.03 0  0.41 0.03 0  0.42 0.03 0  0.43 0.03 0  0.44 0.03 0  0.45 0.03 0  0.46 0.03 0  0.47 0.03 0  0.48 0.03 0  0.49 0.03 0  0.5 0.03 0  0.51 0.03 0  0.52 0.03 0  0.53 0.03 0  0.54 0.03 0  0.55 0.03 0  0.5600000000000001 0.03 0  0.57 0.03 0  0.58 0.03 0  0.59 0.03 0  0.6 0.03 0  0.61 0.03 0  0.62 0.03 0  0.63 0.03 0  0.64 0.03 0  0.65 0.03 0  0.66 0.03 0  0.67 0.03 0  0.68 0.03 0  0.6899999999999999 0.03 0  0.7 0.03 0  0.71 0.03 0  0.72 0.03 0  0.73 0.03 0  0.74 0.03 0  0.75 0.03 0  0.76 0.03 0  0.77 0.03 0  0.78 0.03 0  0.79 0.03 0  0.8 0.03 0  0.8100000000000001 0.03 0  0.82 0.03 0  0.83 0.03 0  0.84 0.03 0  0.85 0.03 0  0.86 0.03 0  0.87 0.03 0  0.88 0.03 0  0.89 0.03 0  0.9 0.03 0  0.91 0.03 0  0.92 0.03 0  0.93 0.03 0  0.9399999999999999 0.03 0  0.95 0.03 0  0.96 0.03 0  0.97 0.03 0  0.98 0.03 0  0.99 0.03 0  1 0.03 0  0 0.04 0  0.01 0.04 0  0.02 0.04 0  0.03 0.04 0  0.04 0.04 0  0.05 0.04 0  0.06 0.04 0  0.07000000000000001 0.04 0  0.08 0.04 0  0.09 0.04 0  0.1 0.04 0  0.11 0.04 0  0.12 0.04 0  0.13 0.04 0  0.14 0.04 0  0.15 0.04 0  0.16 0.04 0  0.17 0.04 0  0.18 0.04 0  0.19 0.04 0  0.2 0.04 0  0.21 0.04 0  0.22 0.04 0  0.23 0.04 0  0.24 0.04 0  0.25 0.04 0  0.26 0.04 0  0.27 0.04 0  0.28 0.04 0  0.29 0.04 0  0.3 0.04 0  0.31 0.04 0  0.32 0.04 0  0.33 0.04 0  0.34 0.04 0  0.35 0.04 0  0.36 0.04 0  0.37 0.04 0  0.38 0.04 0  0.39 0.04 0  0.4 0.04 0  0.41 0.04 0  0.42 0.04 0  0.43 0.04 0  0.44 0.04 0  0.45 0.04 0  0.46 0.04 0  0.47 0.04 0  0.48 0.04 0  0.49 0.04 0  0.5 0.04 0  0.51 0.04 0  0.52 0.04 0  0.53 0.04 0  0.54 0.04 0  0.55 0.04 0  0.5600000000000001 0.04 0  0.57 0.04 0  0.58 0.04 0  0.59 0.04 0  0.6 0.04 0  0.61 0.04 0  0.62 0.04 0  0.63 0.04 0  0.64 0.04 0  0.65 0.04 0  0.66 0.04 0  0.67 0.04 0  0.68 0.04 0  0.6899999999999999 0.04 0  0.7 0.04 0  0.71 0.04 0  0.72 0.04 0  0.73 0.04 0  0.74 0.04 0  0.75 0.04 0  0.76 0.04 0  0.77 0.04 0  0.78 0.04 0  0.79 0.04 0  0.8 0.04 0  0.8100000000000001 0.04 0  0.82 0.04 0  0.83 0.04 0  0.84 0.04 0  0.85 0.04 0  0.86 0.04 0  0.87 0.04 0  0.88 0.04 0  0.89 0.04 0  0.9 0.04 0  0.91 0.04 0  0.92 0.04 0  0.93 0.04 0  0.9399999999999999 0.04 0  0.95 0.04 0  0.96 0.04 0  0.97 0.04 0  0.98 0.04 0  0.99 0.04 0  1 0.04 0  0 0.05 0  0.01 0.05 0  0.02 0.05 0  0.03 0.05 0  0.04 0.05 0  0.05 0.05 0  0.06 0.05 0  0.07000000000000001 0.05 0  0.08 0.05 0  0.09 0.05 0  0.1 0.05 0  0.11 0.05 0  0.12 0.05 0  0.13 0.05 0  0.14 0.05 0  0.15 0.05 0  0.16 0.05 0  0.17 0.05 0  0.18 0.05 0  0.19 0.05 0  0.2 0.05 0  0.21 0.05 0  0.22 0.05 0  0.23 0.05 0  0.24 0.05 0  0.25 0.05 0  0.26 0.05 0  0.27 0.05 0  0.28 0.05 0  0.29 0.05 0  0.3 0.05 0  0.31 0.05 0  0.32 0.05 0  0.33 0.05 0  0.34 0.05 0  0.35 0.05 0  0.36 0.05 0  0.37 0.05 0  0.38 0.05 0  0.39 0.05 0  0.4 0.05 0  0.41 0.05 0  0.42 0.05 0  0.43 0.05 0  0.44 0.05 0  0.45 0.05 0  0.46 0.05 0  0.47 0.05 0  0.48 0.05 0  0.49 0.05 0  0.5 0.05 0  0.51 0.05 0  0.52 0.05 0  0.53 0.05 0  0.54 0.05 0  0.55 0.05 0  0.5600000000000001 0.05 0  0.57 0.05 0  0.58 0.05 0  0.59 0.05 0  0.6 0.05 0  0.61 0.05 0  0.62 0.05 0  0.63 0.05 0  0.64 0.05 0  0.65 0.05 0  0.66 0.05 0  0.67 0.05 0  0.68 0.05 0  0.6899999999999999 0.05 0  0.7 0.05 0  0.71 0.05 0  0.72 0.05 0  0.73 0.05 0  0.74 0.05 0  0.75 0.05 0  0.76 0.05 0  0.77 0.05 0  0.78 0.05 0  0.79 0.05 0  0.8 0.05 0  0.8100000000000001 0.05 0  0.82 0.05 0  0.83 0.05 0  0.84 0.05 0  0.85 0.05 0  0.86 0.05 0  0.87 0.05 0  0.88 0.05 0  0.89 0.05 0  0.9 0.05 0  0.91 0.05 0  0.92 0.05 0  0.93 0.05 0  0.9399999999999999 0.05 0  0.95 0.05 0  0.96 0.05 0  0.97 0.05 0  0.98 0.05 0  0.99 0.05 0  1 0.05 0  0 0.06 0  0.01 0.06 0  0.02 0.06 0  0.03 0.06 0  0.04 0.06 0  0.05 0.06 0  0.06 0.06 0  0.07000000000000001 0.06 0  0.08 0.06 0  0.09 0.06 0  0.1 0.06 0  0.11 0.06 0  0.12 0.06 0  0.13 0.06 0  0.14 0.06 0  0.15 0.06 0  0.16 0.06 0  0.17 0.06 0  0.18 0.06 0  0.19 0.06 0  0.2 0.06 0  0.21 0.06 0  0.22 0.06 0  0.23 0.06 0  0.24 0.06 0  0.25 0.06 0  0.26 0.06 0  0.27 0.06 0  0.28 0.06 0  0.29 0.06 0  0.3 0.06 0  0.31 0.06 0  0.32 0.06 0  0.33 0.06 0  0.34 0.06 0  0.35 0.06 0  0.36 0.06 0  0.37 0.06 0  0.38 0.06 0  0.39 0.06 0  0.4 0.06 0  0.41 0.06 0  0.42 0.06 0  0.43 0.06 0  0.44 0.06 0  0.45 0.06 0  0.46 0.06 0  0.47 0.06 0  0.48 0.06 0  0.49 0.06 0  0.5 0.06 0  0.51 0.06 0  0.52 0.06 0  0.53 0.06 0  0.54 0.06 0  0.55 0.06 0  0.5600000000000001 0.06 0  0.57 0.06 0  0.58 0.06 0  0.59 0.06 0  0.6 0.06 0  0.61 0.06 0  0.62 0.06 0  0.63 0.06 0  0.64 0.06 0  0.65 0.06 0  0.66 0.06 0  0.67 0.06 0  0.68 0.06 0  0.6899999999999999 0.06 0  0.7 0.06 0  0.71 0.06 0  0.72 0.06 0  0.73 0.06 0  0.74 0.06 0  0.75 0.06 0  0.76 0.06 0  0.77 0.06 0  0.78 0.06 0  0.79 0.06 0  0.8 0.06 0  0.8100000000000001 0.06 0  0.82 0.06 0  0.83 0.06 0  0.84 0.06 0  0.85 0.06 0  0.86 0.06 0  0.87 0.06 0  0.88 0.06 0  0.89 0.06 0  0.9 0.06 0  0.91 0.06 0  0.92 0.06 0  0.93 0.06 0  0.9399999999999999 0.06 0  0.95 0.06 0  0.96 0.06 0  0.97 0.06 0  0.98 0.06 0  0.99 0.06 0  1 0.06 0  0 0.07000000000000001 0  0.01 0.07000000000000001 0  0.02 0.07000000000000001 0  0.03 0.07000000000000001 0  0.04 0.07000000000000001 0  0.05 0.07000000000000001 0  0.06 0.07000000000000001 0  0.07000000000000001 0.07000000000000001 0  0.08 0.07000000000000001 0  0.09 0.07000000000000001 0  0.1 0.07000000000000001 0  0.11 0.07000000000000001 0  0.12 0.07000000000000001 0  0.13 0.07000000000000001 0  0.14 0.07000000000000001 0  0.15 0.07000000000000001 0  0.16 0.07000000000000001 0  0.17 0.0700
[...]
<PointData  Scalars="f_17"> 
<DataArray  type="Float64"  Name="f_17"  format="ascii">0.0000000000000000e+00  5.0000000000000000e+01  5.0000000000000000e+01  5.0000000000000000e+01  5.0000000000000000e+01  5.0000000000000000e+01  5.0000000000000000e+01  5.0000000000000000e+01  5.0000000000000000e+01  5.0000000000000000e+01  5.0000000000000000e+01  5.0000000000000000e+01  5.0000000000000000e+01  5.0000000000000000e+01  5.0000000000000000e+01  5.0000000000000000e+01  5.0000000000000000e+01  5.0000000000000000e+01  5.0000000000000000e+01  5.0000000000000000e+01  5.0000000000000000e+01  5.0000000000000000e+01  5.0000000000000000e+01  5.0000000000000000e+01  5.0000000000000000e+01  5.0000000000000000e+01  5.0000000000000000e+01  5.0000000000000000e+01  5.0000000000000000e+01  5.0000000000000000e+01  5.0000000000000000e+01  5.0000000000000000e+01  5.0000000000000000e+01  5.0000000000000000e+01  5.0000000000000000e+01  5.0000000000000000e+01  5.0000000000000000e+01  5.0000000000000000e+01  5.0000000000000000e+01  5.0000000000000000e+01  5.0000000000000000e+01  5.0000000000000000e+01  5.0000000000000000e+01  5.0000000000000000e+01  5.0000000000000000e+01  5.0000000000000000e+01  5.0000000000000000e+01  5.0000000000000000e+01  5.0000000000000000e+01  5.0000000000000000e+01  5.0000000000000000e+01  5.0000000000000000e+01  5.0000000000000000e+01  5.0000000000000000e+01  5.0000000000000000e+01  5.0000000000000000e+01  5.0000000000000000e+01  5.0000000000000000e+01  5.0000000000000000e+01  5.0000000000000000e+01  5.0000000000000000e+01  5.0000000000000000e+01  5.0000000000000000e+01  5.0000000000000000e+01  5.0000000000000000e+01  5.0000000000000000e+01  5.0000000000000000e+01  5.0000000000000000e+01  5.0000000000000000e+01  5.0000000000000000e+01  5.0000000000000000e+01  5.0000000000000000e+01  5.0000000000000000e+01  5.0000000000000000e+01  5.0000000000000000e+01  5.0000000000000000e+01  5.0000000000000000e+01  5.0000000000000000e+01  5.0000000000000000e+01  5.0000000000000000e+01  5.0000000000000000e+01  5.0000000000000000e+01  5.0000000000000000e+01  5.0000000000000000e+01  5.0000000000000000e+01  5.0000000000000000e+01  5.0000000000000000e+01  5.0000000000000000e+01  5.0000000000000000e+01  5.0000000000000000e+01  5.0000000000000000e+01  5.0000000000000000e+01  5.0000000000000000e+01  5.0000000000000000e+01  5.0000000000000000e+01  5.0000000000000000e+01  5.0000000000000000e+01  5.0000000000000000e+01  5.0000000000000000e+01  5.0000000000000000e+01  0.0000000000000000e+00  0.0000000000000000e+00  2.4966017862423175e+01  3.5185709477676390e+01  3.9658556242933315e+01  4.2067029443718383e+01  4.3547712183612752e+01  4.4540622115966322e+01  4.5247479159016969e+01  4.5772865897372263e+01  4.6176175520572258e+01  4.6493564881597493e+01  4.6748279157568369e+01  4.6955933164830029e+01  4.7127401176735731e+01  4.7270487795535267e+01  4.7390939430138872e+01  4.7493080839665225e+01  4.7580229265434156e+01  4.7654971734528829e+01  4.7719355479071382e+01  4.7775021632075259e+01  4.7823300970516627e+01  4.7865283703600433e+01  4.7901871160123967e+01  4.7933814627329710e+01  4.7961744922360353e+01  4.7986195181112045e+01  4.8007618616326610e+01  4.8026402498171485e+01  4.8042879265944883e+01  4.8057335437854782e+01  4.8070018814001784e+01  4.8081144344016970e+01  4.8090898940730163e+01  4.8099445454936422e+01  4.8106925977012246e+01  4.8113464594111335e+01  4.8119169703622575e+01  4.8124135962149914e+01  4.8128445932770880e+01  4.8132171480528427e+01  4.8135374956091653e+01  4.8138110199633942e+01  4.8140423390708207e+01  4.8142353764886565e+01  4.8143934213880378e+01  4.8145191782555223e+01  4.8146148073532423e+01  4.8146819567789279e+01  4.8147217867736117e+01  4.8147349867565325e+01  4.8147217854174592e+01  4.8146819540595935e+01  4.8146148032567112e+01  4.8145191727609401e+01  4.8143934144678610e+01  4.8142353681089155e+01  4.8140423291914018e+01  4.8138110085384035e+01  4.8135374825873491e+01  4.8132171333780491e+01  4.8128445768888071e+01  4.8124135780489354e+01  4.8119169503510044e+01  4.8113464374847872e+01  4.8106925737881866e+01  4.8099445195213612e+01  4.8090898659688136e+01  4.8081144040936003e+01  4.8070018488178036e+01  4.8057335088609086e+01  4.8042878892631840e+01  4.8026402100188356e+01  4.8007618193122362e+01  4.7986194732196033e+01  4.7961744447310785e+01  4.7933814125801398e+01  4.7901870631856148e+01  4.7865283148423451e+01  4.7823300388357836e+01  4.7775021022963848e+01  4.7719354843142810e+01  4.7654971072027280e+01  4.7580228576713765e+01  4.7493080125190126e+01  4.7390938690480979e+01  4.7270487031370550e+01  4.7127400388838133e+01  4.6955932354062888e+01  4.6748278324872373e+01  4.6493564027975331e+01  4.6176174647066972e+01  4.5772865005037566e+01  4.5247478248872824e+01  4.4540621188924440e+01  4.3547711240332163e+01  4.2067028484262956e+01  3.9658555265747488e+01  3.5185708475650650e+01  2.4966016803494615e+01  0.0000000000000000e+00  0.0000000000000000e+00  1.4678507784412052e+01  2.4864363517471698e+01  3.1081689154924696e+01  3.4971682574384118e+01  3.7550599176723999e+01  3.9353923940891612e+01  4.0670600723336648e+01  4.1665364786541680e+01  4.2437528811067374e+01  4.3050011260012212e+01  4.3544407691217259e+01  4.3949232871597580e+01  4.4284649402314045e+01  4.4565298717344916e+01  4.4802060724281489e+01  4.5003184139577613e+01  4.5175033940986808e+01  4.5322598475084767e+01  4.5449841440849958e+01  4.5559951234484231e+01  4.5655520851938327e+01  4.5738679855655128e+01  4.5811192644394559e+01  4.5874532640892539e+01  4.5929939007259215e+01  4.5978460507413274e+01  4.6020989793618782e+01  4.6058290474324018e+01  4.6091018680563280e+01  4.6119740396773182e+01  4.6144945499324649e+01  4.6167059212833635e+01  4.6186451523751998e+01  4.6203444964723047e+01  4.6218321089152049e+01  4.6231325884639730e+01  4.6242674320140580e+01  4.6252554180521898e+01  4.6261129310409125e+01  4.6268542364472140e+01  4.6274917141939376e+01  4.6280360567831409e+01  4.6284964371242054e+01  4.6288806501249411e+01  4.6291952313150531e+01  4.6294455551278972e+01  4.6296359149344440e+01  4.6297695864786725e+01  4.6298488759841597e+01  4.6298751538728830e+01  4.6298488747439919e+01  4.6297695839917935e+01  4.6296359111878026e+01  4.6294455501020835e+01  4.6291952249844528e+01  4.6288806424579185e+01  4.6284964280834423e+01  4.6280360463259356e+01  4.6274917022726008e+01  4.6268542230095001e+01  4.6261129160305302e+01  4.6252554014093512e+01  4.6242674136760300e+01  4.6231325683657637e+01  4.6218320869901774e+01  4.6203444726529646e+01  4.6186451265939027e+01  4.6167058934730782e+01  4.6144945200275842e+01  4.6119740076144502e+01  4.6091018337751251e+01  4.6058290108763131e+01  4.6020989404789844e+01  4.5978460094850632e+01  4.5929938570558001e+01  4.5874532179715132e+01  4.5811192158476622e+01  4.5738679344810826e+01  4.5655520316064191e+01  4.5559950673562184e+01  4.5449840854949301e+01  4.5322597864362145e+01  4.5175033305684693e+01  4.5003183480020894e+01  4.4802060040872071e+01  4.4565298010553292e+01  4.4284648672668240e+01  4.3949232119668380e+01  4.3544406917599154e+01  4.3050010465298008e+01  4.2437527995814420e+01  4.1665363951225672e+01  4.0670599868284448e+01  3.9353923066175909e+01  3.7550598281984300e+01  3.4971681658498582e+01  3.1081688215415905e+01  2.4864362549969293e+01  1.4678506788701387e+01  0.0000000000000000e+00  0.0000000000000000e+00  1.0138135484653722e+01  1.8512132806440725e+01  2.4695914164291697e+01  2.9112101217324927e+01  3.2292782861311004e+01  3.4636533392262230e+01  3.6407492043899680e+01  3.7777040358329430e+01  3.8857745252238729e+01  3.9725280855815846e+01  4.0431851267653094e+01  4.1014389024689869e+01  4.1499641279647648e+01  4.1907395226660782e+01  4.2252572355066832e+01  4.2546620169690790e+01  4.2798457608583739e+01  4.3015130556555704e+01  4.3202275014033795e+01  4.3364450091456277e+01  4.3505381264525901e+01  4.3628140700088565e+01  4.3735282750859945e+01  4.3828947042759395e+01  4.3910937817124207e+01  4.3982785655433986e+01  4.4045795979825826e+01  4.4101087518804952e+01  4.4149623080631180e+01  4.4192234373534838e+01  4.4229642177049989e+01  4.4262472851842844e+01  4.4291271942070367e+01  4.4316515450811409e+01  4.4338619238939764e+01  4.4357946899285139e+01  4.4374816382752378e+01  4.4389505595251869e+01  4.4402257139499369e+01  4.4413282340779652e+01  4.4422764668285495e+01  4.4430862641886051e+01  4.4437712296824301e+01  4.4443429264897375e+01  4.4448110519366132e+01  4.4451835821588837e+01  4.4454668899714932e+01  4.4456658383348994e+01  4.4457838512616881e+01  4.4458229635296931e+01  4.4457838501428782e+01  4.4456658360911312e+01  4.4454668865905013e+01  4.4451835776224208e+01  4.4448110462205833e+01  4.4443429195644164e+01  4.4437712215127128e+01  4.4430862547343288e+01  4.4422764560448620e+01  4.4413282219157125e+01  4.4402257003561537e+01  4.4389505444435692e+01  4.4374816216467266e+01  4.4357946716918576e+01  4.4338619039863786e+01  4.4316515234389186e+01  4.4291271707663014e+01  4.4262472598816636e+01  4.4229641904783414e+01  4.4192234081426143e+01  4.4149622768105466e+01  4.4101087185321461e+01  4.4045795624884725e+01  4.3982785278582817e+01  4.3910937417964142e+01  4.3828946620950497e+01  4.3735282306125775e+01  4.3628140232219820e+01  4.3505380773383081e+01  4.3364449576970664e+01  4.3202274476207414e+01  4.3015129995459276e+01  4.2798457024352459e+01  4.2546619562518359e+01  4.2252571725196482e+01  4.1907394574373349e+01  4.1499640605246235e+01  4.1014388328480102e+01  4.0431850549917925e+01  3.9725280116783217e+01  3.8857744492040212e+01  3.7777039576945178e+01  3.6407491241084372e+01  3.4636532567442430e+01  3.2292782013444075e+01  2.9112100344727125e+01  2.4695913264549841e+01  1.8512131876925892e+01  1.0138134524144956e+01  0.0000000000000000e+00  0.0000000000000000e+00  7.6625737014278528e+00  1.4488107253193528e+01  2.0079040500204229e+01  2.4462115934424798e+01  2.7851141021914060e+01  3.0479427522201000e+01  3.2539349788761520e+01  3.4175059112657948e+01  3.5491179652486835e+01  3.6563269944658970e+01  3.7446283670919563e+01  3.8180683236740371e+01  3.8796689985645173e+01  3.9317210133627583e+01  3.9759855358474248e+01  4.0138351113536757e+01  4.0463530075465357e+01  4.0744042209762675e+01  4.0986869118812031e+01  4.1197701539451025e+01  4.1381219923945167e+01  4.1541305511025243e+01  4.1681200926471476e+01  4.1803633702505259e+01  4.1910912245127172e+01  4.2005001110119920e+01  4.2087580582193453e+01  4.2160094231638475e+01  4.2223787178782558e+01  4.2279737114263000e+01  4.2328879625080795e+01  4.2372029009339933e+01  4.2409895489585949e+01  4.2443099529861556e+01  4.2472183806689657e+01  4.2497623266099296e+01  4.2519833608101209e+01  4.2539178469839307e+01  4.2555975523972918e+01  4.2570501665955618e+01  4.2582997430012384e+01  4.2593670746687422e+01  4.2602700133276969e+01  4.2610237391066427e+01  4.2616409869144327e+01  4.2621322342949341e+01  4.2625058546062000e+01  4.2627682385636767e+01  4.2629238864934763e+01  4.2629754730360872e+01  4.2629238855005333e+01  4.2627682365719366e+01  4.2625058516039950e+01  4.2621322302648970e+01  4.2616409818336059e+01  4.2610237329467282e+01  4.2602700060552500e+01  4.2593670662454954e+01  4.2582997333844183e+01  4.2570501557382933e+01  4.2555975402490091e+01  4.2539178334908655e+01  4.2519833459158036e+01  4.2497623102557668e+01  4.2472183627947999e+01  4.2443099335309100e+01  4.2409895278608815e+01  4.2372028781328034e+01  4.2328879379434412e+01  4.2279736850399551e+01  4.2223786896143132e+01  4.2160093929694526e+01  4.2087580260452725e+01  4.2005000768132213e+01  4.1910911882489501e+01  4.1803633318866588e+01  4.1681200521535779e+01  4.1541305084554345e+01  4.1381219475759707e+01  4.1197701069430423e+01  4.0986868626892480e+01  4.0744041695933312e+01  4.0463529539762071e+01  4.0138350556033750e+01  3.9759854779272501e+01  3.9317209532839975e+01  3.8796689363377752e+01  3.8180682593068816e+01  3.7446283005859868e+01  3.6563269258131079e+01  3.5491178944269265e+01  3.4175058382330846e+01  3.2539349035635375e+01  3.0479426745229652e+01  2.7851140219596452e+01  2.4462115104722031e+01  2.0079039640545457e+01  1.4488106360652026e+01  7.6625727727842969e+00  0.0000000000000000e+00  0.0000000000000000e+00  6.1153805234824645e+00  1.1776313541642789e+01  1.6699401626248793e+01  2.0808480973003867e+01  2.4164962546136493e+01  2.6885739768117727e+01  2.9092803477055696e+01  3.0892412125353342e+01  3.2370333934342902e+01  3.3593551824809275e+01  3.4613751814501178e+01  3.5470768196227340e+01  3.6195439283569549e+01  3.6811816902782041e+01  3.7338826037820660e+01  3.7791497404650158e+01  3.8181881092521536e+01  3.8519725961504804e+01  3.8812987898128135e+01  3.9068212915303334e+01  3.9290828321824080e+01  3.9485365935232736e+01  3.9655634685173879e+01  3.9804855224836096e+01  3.9935765788471805e+01  4.0050706108185068e+01  4.0151684453448809e+01  4.0240431585728565e+01  4.0318444490517166e+01  4.0387022063428212e+01  4.0447294417703283e+01  4.0500247099347021e+01  4.0546741208771643e+01  4.0587530209655100e+01  4.0623274038894323e+01  4.0654551003111962e+01  4.0681867847664932e+01  4.0705668306495596e+01  4.0726340380270699e+01  4.0744222542163563e+01  4.0759609032431719e+01  4.0772754372392463e+01  4.0783877203814136e+01  4.0793163539806670e+01  4.0800769497011828e+01  4.0806823565461045e+01  4.0811428461276456e+01  4.0814662597934444e+01  4.0816581203699585e+01  4.0817217105738919e+01  4.0816581195065702e+01  4.0814662580610062e+01  4.0811428435149054e+01  4.0806823530362678e+01  4.0800769452720836e+01  4.0793163486049536e+01  4.0783877140267457e+01  4.0772754298685960e+01  4.0759608948151232e+01  4.0744222446854863e+01  4.0726340273443256e+01  4.0705668187627339e+01  4.0681867716206916e+01  4.0654550858493664e+01  4.0623273880529162e+01  4.0587530036946355e+01  4.0546741021118329e+01  4.0500246896150273e+01  4.0447294198372525e+01  4.0387021827387585e+01  4.0318444237211587e+01  4.0240431314630023e+01  4.0151684164061415e+01  4.0050705800050700e+01  3.9935765461174419e+01  3.9804854878005472e+01  3.9655634318488389e+01  3.9485365548421001e+01  3.9290827914665059e+01  3.9068212487625082e+01  3.8812987449804524e+01  3.8519725492450355e+01  3.8181880602683606e+01  3.7791496893998698e+01  3.7338825506334686e+01  3.6811816350432679e+01  3.6195438710298760e+01  3.5470767601921978e+01  3.4613751198961467e+01  3.3593551187710403e+01  3.2370333275188848e+01  3.0892411443421437e+01  2.9092802771331584e+01  2.6885739037222073e+01  2.4164961788249510e+01  2.0808480185802210e+01  1.6699400806870138e+01  1.1776312686648245e+01  6.1153796286585678e+00  0.0000000000000000e+00  0.0000000000000000e+00  5.0566757416848347e+00  9.8415412823833233e+00  1.4158834382346063e+01  1.7918431361461806e+01  2.1118035268498694e+01  2.3806965247897875e+01  2.6055065260368632e+01  2.7933880618396223e+01  2.9507907095571170e+01  3.0831801004052558e+01  3.1950463482356742e+01  3.2900242662613245e+01  3.3710402441106105e+01  3.4404501121339443e+01  3.5001561827621785e+01  3.5517020254881480e+01  3.5963474315738168e+01  3.6351270575695075e+01  3.6688961170022701e+01  3.6983659862943796e+01  3.7241320261621354e+01  3.7466954131279749e+01  3.7664803600299109e+01  3.7838477776877468e+01  3.7991061788409958e+01  3.8125204347920516e+01  3.8243188511033559e+01  3.8346989199636660e+01  3.8438320246862254e+01  3.8518673095624187e+01  3.8589348809627239e+01  3.8651484694226816e+01  3.8706076547011378e+01  3.8753997343899385e+01  3.8796013000523992e+01  3.8832795719255742e+01  3.8864935330782330e+01  3.8892948959252870e+01  3.8917289276698348e+01  3.8938351562038306e+01  3.8956479739628172e+01  3.8971971539802219e+01  3.8985082897541552e+01  3.8996031683918233e+01  3.9005000847321035e+01  3.9012141026837092e+01  3.9017572687905698e+01  3.9021387819960751e+01  3.9023651226814330e+01  3.9024401432660810e+01  3.9023651219505005e+01  3.9021387805286643e+01  3.9017572665756362e+01  3.9012140997047958e+01  3.9005000809674534e+01  3.8996031638145652e+01  3.8985082843325102e+01  3.8971971476777796e+01  3.8956479667388152e+01  3.8938351480134983e+01  3.8917289184647650e+01  3.8892948856538993e+01  3.8864935216862008e+01  3.8832795593563361e+01  3.8796012862476879e+01  3.8753997192903419e+01  3.8706076382466726e+01  3.8651484515533902e+01  3.8589348616192723e+01  3.8518672886867229e+01  3.8438320022220246e+01  3.8346988958570833e+01  3.8243188253034425e+01  3.8125204072512638e+01  3.7991061495155996e+01  3.7838477465381516e+01  3.7664803270208978e+01  3.7466953782287909e+01  3.7241319893464592e+01  3.6983659475400991e+01  3.6688960762910931e+01  3.6351270148863115e+01  3.5963473869058049e+01  3.5517019788236603e+01  3.5001561340892430e+01  3.4404500614384176e+01  3.3710401913739197e+01  3.2900242114577608e+01  3.1950462913291254e+01  3.0831800413453525e+01  2.9507906482747174e+01  2.7933879982415643e+01  2.6055064600000648e+01  2.3806964561548032e+01  2.1118034554142810e+01  1.7918430616581830e+01  1.4158833603864245e+01  9.8415404665685404e+00  5.0566748839771840e+00  0.0000000000000000e+00  0.0000000000000000e+00  4.2848722708827811e+00  8.3951119950067472e+00  1.2193596875170096e+01  1.5600121187525891e+01  1.8589026750370376e+01  2.1174046944667051e+01  2.3391115360609327e+01  2.5285060341033059e+01  2.6901379706523276e+01  2.8282039355493190e+01  2.9463821877075482e+01  3.0478066623809294e+01  3.1351067104177574e+01  3.2104715890039230e+01  3.2757190387730837e+01  3.3323586920150909e+01  3.3816469810683735e+01  3.4246330636248956e+01  3.4621965091803276e+01  3.4950779112589458e+01  3.5239036342904150e+01  3.5492057911543561e+01  3.5714383838544734e+01  3.5909903740295960e+01  3.6081963017003567e+01  3.6233449456558752e+01  3.6366864169113590e+01  3.6484379950072530e+01  3.6587889522180099e+01  3.6679045597640716e+01  3.6759294300645514e+01  3.6829903176056092e+01  3.6891984762633868e+01  3.6946516514338597e+01  3.6994357699306306e+01  3.7036263784161889e+01  3.7072898714354451e+01  3.7104845423806928e+01  3.7132614845153405e+01  3.7156653641922681e+01  3.7177350843676329e+01  3.7195043532326451e+01  3.7210021701081864e+01  3.7222532385465335e+01  3.7232783147633576e+01  3.7240944980033085e+01  3.7247154681614866e+01  3.7251516748896698e+01  3.7254104814692475e+01  3.7254962658966228e+01  3.7254104808729672e+01  3.7251516736915924e+01  3.7247154663506038e+01  3.7240944955632202e+01  3.7232783116723674e+01  3.7222532347778355e+01  3.7210021656300441e+01  3.7195043480086561e+01  3.7177350783570027e+01  3.7156653573501302e+01  3.7132614767931265e+01  3.7104845337265509e+01  3.7072898617946656e+01  3.7036263677317024e+01  3.6994357581435104e+01  3.6946516384838752e+01  3.6891984620895599e+01  3.6829903021467956e+01  3.6759294132600324e+01  3.6679045415541665e+01  3.6587889325446319e+01  3.6484379738144739e+01  3.6366863941459215e+01  3.6233449212676781e+01  3.6081962756428304e+01  3.5909903462600241e+01  3.5714383543341953e+01  3.5492057598488451e+01  3.5239036011692065e+01  3.4950778762953696e+01  3.4621964723510921e+01  3.4246330249093738e+01  3.3816469404476997e+01  3.3323586494709104e+01  3.2757189942860322e+01  3.2104715425517149e+01  3.1351066619728776e+01  3.0478066119078754e+01  2.9463821351596103e+01  2.8282038808648018e+01  2.6901379137502349e+01  2.5285059748784430e+01  2.3391114743785291e+01  2.1174046301565888e+01  1.8589026078875481e+01  1.5600120485042003e+01  1.2193596138552241e+01  8.3951112204709926e+00  4.2848714538854669e+00  0.0000000000000000e+00  0.0000000000000000e+00  3.6955149377705707e+00  7.2725449611602651e+00  1.0632688684814958e+01  1.3709906032702206e+01  1.6472310067146779e+01  1.8916194373630425e+01  2.1057001955837926e+01  2.2920840236742240e+01  2.4538145639572296e+01  2.5939649206196570e+01  2.7154154544758040e+01  2.8207528644638046e+01  2.9122416419624443e+01  2.9918343796661638e+01  3.0612002586318212e+01  3.1217599352019260e+01  3.1747206239513446e+01  3.2211084361758125e+01  3.2617968392095491e+01  3.2975310425714703e+01  3.3289485669866664e