<?xml version="1.0"?>
<VTKFile type="UnstructuredGrid"  version="0.1"  >
<UnstructuredGrid>
<Piece  NumberOfPoints="10201" NumberOfCells="20000">
<Points>
<DataArray  type="Float64"  NumberOfComponents="3"  format="ascii">0 0 0  0.01 0 0  0.02 0 0  0.03 0 0  0.04 0 0  0.05 0 0  0.06 0 0  0.07000000000000001 0 0  0.08 0 0  0.09 0 0  0.1 0 0  0.11 0 0  0.12 0 0  0.13 0 0  0.14 0 0  0.15 0 0  0.16 0 0  0.17 0 0  0.18 0 0  0.19 0 0  0.2 0 0  0.21 0 0  0.22 0 0  0.23 0 0  0.24 0 0  0.25 0 0  0.26 0 0  0.27 0 0  0.28 0 0  0.29 0 0  0.3 0 0  0.31 0 0  0.32 0 0  0.33 0 0  0.34 0 0  0.35 0 0  0.36 0 0  0.37 0 0  0.38 0 0  0.39 0 0  0.4 0 0  0.41 0 0  0.42 0 0  0.43 0 0  0.44 0 0  0.45 0 0  0.46 0 0  0.47 0 0  0.48 0 0  0.49 0 0  0.5 0 0  0.51 0 0  0.52 0 0  0.53 0 0  0.54 0 0  0.55 0 0  0.5600000000000001 0 0  0.57 0 0  0.58 0 0  0.59 0 0  0.6 0 0  0.61 0 0  0.62 0 0  0.63 0 0  0.64 0 0  0.65 0 0  0.66 0 0  0.67 0 0  0.68 0 0  0.6899999999999999 0 0  0.7 0 0  0.71 0 0  0.72 0 0  0.73 0 0  0.74 0 0  0.75 0 0  0.76 0 0  0.77 0 0  0.78 0 0  0.79 0 0  0.8 0 0  0.8100000000000001 0 0  0.82 0 0  0.83 0 0  0.84 0 0  0.85 0 0  0.86 0 0  0.87 0 0  0.88 0 0  0.89 0 0  0.9 0 0  0.91 0 0  0.92 0 0  0.93 0 0  0.9399999999999999 0 0  0.95 0 0  0.96 0 0  0.97 0 0  0.98 0 0  0.99 0 0  1 0 0  0 0.01 0  0.01 0.01 0  0.02 0.01 0  0.03 0.01 0  0.04 0.01 0  0.05 0.01 0  0.06 0.01 0  0.07000000000000001 0.01 0  0.08 0.01 0  0.09 0.01 0  0.1 0.01 0  0.11 0.01 0  0.12 0.01 0  0.13 0.01 0  0.14 0.01 0  0.15 0.01 0  0.16 0.01 0  0.17 0.01 0  0.18 0.01 0  0.19 0.01 0  0.2 0.01 0  0.21 0.01 0  0.22 0.01 0  0.23 0.01 0  0.24 0.01 0  0.25 0.01 0  0.26 0.01 0  0.27 0.01 0  0.28 0.01 0  0.29 0.01 0  0.3 0.01 0  0.31 0.01 0  0.32 0.01 0  0.33 0.01 0  0.34 0.01 0  0.35 0.01 0  0.36 0.01 0  0.37 0.01 0  0.38 0.01 0  0.39 0.01 0  0.4 0.01 0  0.41 0.01 0  0.42 0.01 0  0.43 0.01 0  0.44 0.01 0  0.45 0.01 0  0.46 0.01 0  0.47 0.01 0  0.48 0.01 0  0.49 0.01 0  0.5 0.01 0  0.51 0.01 0  0.52 0.01 0  0.53 0.01 0  0.54 0.01 0  0.55 0.01 0  0.5600000000000001 0.01 0  0.57 0.01 0  0.58 0.01 0  0.59 0.01 0  0.6 0.01 0  0.61 0.01 0  0.62 0.01 0  0.63 0.01 0  0.64 0.01 0  0.65 0.01 0  0.66 0.01 0  0.67 0.01 0  0.68 0.01 0  0.6899999999999999 0.01 0  0.7 0.01 0  0.71 0.01 0  0.72 0.01 0  0.73 0.01 0  0.74 0.01 0  0.75 0.01 0  0.76 0.01 0  0.77 0.01 0  0.78 0.01 0  0.79 0.01 0  0.8 0.01 0  0.8100000000000001 0.01 0  0.82 0.01 0  0.83 0.01 0  0.84 0.01 0  0.85 0.01 0  0.86 0.01 0  0.87 0.01 0  0.88 0.01 0  0.89 0.01 0  0.9 0.01 0  0.91 0.01 0  0.92 0.01 0  0.93 0.01 0  0.9399999999999999 0.01 0  0.95 0.01 0  0.96 0.01 0  0.97 0.01 0  0.98 0.01 0  0.99 0.01 0  1 0.01 0  0 0.02 0  0.01 0.02 0  0.02 0.02 0  0.03 0.02 0  0.04 0.02 0  0.05 0.02 0  0.06 0.02 0  0.07000000000000001 0.02 0  0.08 0.02 0  0.09 0.02 0  0.1 0.02 0  0.11 0.02 0  0.12 0.02 0  0.13 0.02 0  0.14 0.02 0  0.15 0.02 0  0.16 0.02 0  0.17 0.02 0  0.18 0.02 0  0.19 0.02 0  0.2 0.02 0  0.21 0.02 0  0.22 0.02 0  0.23 0.02 0  0.24 0.02 0  0.25 0.02 0  0.26 0.02 0  0.27 0.02 0  0.28 0.02 0  0.29 0.02 0  0.3 0.02 0  0.31 0.02 0  0.32 0.02 0  0.33 0.02 0  0.34 0.02 0  0.35 0.02 0  0.36 0.02 0  0.37 0.02 0  0.38 0.02 0  0.39 0.02 0  0.4 0.02 0  0.41 0.02 0  0.42 0.02 0  0.43 0.02 0  0.44 0.02 0  0.45 0.02 0  0.46 0.02 0  0.47 0.02 0  0.48 0.02 0  0.49 0.02 0  0.5 0.02 0  0.51 0.02 0  0.52 0.02 0  0.53 0.02 0  0.54 0.02 0  0.55 0.02 0  0.5600000000000001 0.02 0  0.57 0.02 0  0.58 0.02 0  0.59 0.02 0  0.6 0.02 0  0.61 0.02 0  0.62 0.02 0  0.63 0.02 0  0.64 0.02 0  0.65 0.02 0  0.66 0.02 0  0.67 0.02 0  0.68 0.02 0  0.6899999999999999 0.02 0  0.7 0.02 0  0.71 0.02 0  0.72 0.02 0  0.73 0.02 0  0.74 0.02 0  0.75 0.02 0  0.76 0.02 0  0.77 0.02 0  0.78 0.02 0  0.79 0.02 0  0.8 0.02 0  0.8100000000000001 0.02 0  0.82 0.02 0  0.83 0.02 0  0.84 0.02 0  0.85 0.02 0  0.86 0.02 0  0.87 0.02 0  0.88 0.02 0  0.89 0.02 0  0.9 0.02 0  0.91 0.02 0  0.92 0.02 0  0.93 0.02 0  0.9399999999999999 0.02 0  0.95 0.02 0  0.96 0.02 0  0.97 0.02 0  0.98 0.02 0  0.99 0.02 0  1 0.02 0  0 0.03 0  0.01 0.03 0  0.02 0.03 0  0.03 0.03 0  0.04 0.03 0  0.05 0.03 0  0.06 0.03 0  0.07000000000000001 0.03 0  0.08 0.03 0  0.09 0.03 0  0.1 0.03 0  0.11 0.03 0  0.12 0.03 0  0.13 0.03 0  0.14 0.03 0  0.15 0.03 0  0.16 0.03 0  0.17 0.03 0  0.18 0.03 0  0.19 0.03 0  0.2 0.03 0  0.21 0.03 0  0.22 0.03 0  0.23 0.03 0  0.24 0.03 0  0.25 0.03 0  0.26 0.03 0  0.27 0.03 0  0.28 0.03 0  0.29 0.03 0  0.3 0.03 0  0.31 0.03 0  0.32 0.03 0  0.33 0.03 0  0.34 0.03 0  0.35 0.03 0  0.36 0.03 0  0.37 0.03 0  0.38 0.03 0  0.39 0.03 0  0.4 0.03 0  0.41 0.03 0  0.42 0.03 0  0.43 0.03 0  0.44 0.03 0  0.45 0.03 0  0.46 0.03 0  0.47 0.03 0  0.48 0.03 0  0.49 0.03 0  0.5 0.03 0  0.51 0.03 0  0.52 0.03 0  0.53 0.03 0  0.54 0.03 0  0.55 0.03 0  0.5600000000000001 0.03 0  0.57 0.03 0  0.58 0.03 0  0.59 0.03 0  0.6 0.03 0  0.61 0.03 0  0.62 0.03 0  0.63 0.03 0  0.64 0.03 0  0.65 0.03 0  0.66 0.03 0  0.67 0.03 0  0.68 0.03 0  0.6899999999999999 0.03 0  0.7 0.03 0  0.71 0.03 0  0.72 0.03 0  0.73 0.03 0  0.74 0.03 0  0.75 0.03 0  0.76 0.03 0  0.77 0.03 0  0.78 0.03 0  0.79 0.03 0  0.8 0.03 0  0.8100000000000001 0.03 0  0.82 0.03 0  0.83 0.03 0  0.84 0.03 0  0.85 0.03 0  0.86 0.03 0  0.87 0.03 0  0.88 0.03 0  0.89 0.03 0  0.9 0.03 0  0.91 0.03 0  0.92 0.03 0  0.93 0.03 0  0.9399999999999999 0.03 0  0.95 0.03 0  0.96 0.03 0  0.97 0.03 0  0.98 0.03 0  0.99 0.03 0  1 0.03 0  0 0.04 0  0.01 0.04 0  0.02 0.04 0  0.03 0.04 0  0.04 0.04 0  0.05 0.04 0  0.06 0.04 0  0.07000000000000001 0.04 0  0.08 0.04 0  0.09 0.04 0  0.1 0.04 0  0.11 0.04 0  0.12 0.04 0  0.13 0.04 0  0.14 0.04 0  0.15 0.04 0  0.16 0.04 0  0.17 0.04 0  0.18 0.04 0  0.19 0.04 0  0.2 0.04 0  0.21 0.04 0  0.22 0.04 0  0.23 0.04 0  0.24 0.04 0  0.25 0.04 0  0.26 0.04 0  0.27 0.04 0  0.28 0.04 0  0.29 0.04 0  0.3 0.04 0  0.31 0.04 0  0.32 0.04 0  0.33 0.04 0  0.34 0.04 0  0.35 0.04 0  0.36 0.04 0  0.37 0.04 0  0.38 0.04 0  0.39 0.04 0  0.4 0.04 0  0.41 0.04 0  0.42 0.04 0  0.43 0.04 0  0.44 0.04 0  0.45 0.04 0  0.46 0.04 0  0.47 0.04 0  0.48 0.04 0  0.49 0.04 0  0.5 0.04 0  0.51 0.04 0  0.52 0.04 0  0.53 0.04 0  0.54 0.04 0  0.55 0.04 0  0.5600000000000001 0.04 0  0.57 0.04 0  0.58 0.04 0  0.59 0.04 0  0.6 0.04 0  0.61 0.04 0  0.62 0.04 0  0.63 0.04 0  0.64 0.04 0  0.65 0.04 0  0.66 0.04 0  0.67 0.04 0  0.68 0.04 0  0.6899999999999999 0.04 0  0.7 0.04 0  0.71 0.04 0  0.72 0.04 0  0.73 0.04 0  0.74 0.04 0  0.75 0.04 0  0.76 0.04 0  0.77 0.04 0  0.78 0.04 0  0.79 0.04 0  0.8 0.04 0  0.8100000000000001 0.04 0  0.82 0.04 0  0.83 0.04 0  0.84 0.04 0  0.85 0.04 0  0.86 0.04 0  0.87 0.04 0  0.88 0.04 0  0.89 0.04 0  0.9 0.04 0  0.91 0.04 0  0.92 0.04 0  0.93 0.04 0  0.9399999999999999 0.04 0  0.95 0.04 0  0.96 0.04 0  0.97 0.04 0  0.98 0.04 0  0.99 0.04 0  1 0.04 0  0 0.05 0  0.01 0.05 0  0.02 0.05 0  0.03 0.05 0  0.04 0.05 0  0.05 0.05 0  0.06 0.05 0  0.07000000000000001 0.05 0  0.08 0.05 0  0.09 0.05 0  0.1 0.05 0  0.11 0.05 0  0.12 0.05 0  0.13 0.05 0  0.14 0.05 0  0.15 0.05 0  0.16 0.05 0  0.17 0.05 0  0.18 0.05 0  0.19 0.05 0  0.2 0.05 0  0.21 0.05 0  0.22 0.05 0  0.23 0.05 0  0.24 0.05 0  0.25 0.05 0  0.26 0.05 0  0.27 0.05 0  0.28 0.05 0  0.29 0.05 0  0.3 0.05 0  0.31 0.05 0  0.32 0.05 0  0.33 0.05 0  0.34 0.05 0  0.35 0.05 0  0.36 0.05 0  0.37 0.05 0  0.38 0.05 0  0.39 0.05 0  0.4 0.05 0  0.41 0.05 0  0.42 0.05 0  0.43 0.05 0  0.44 0.05 0  0.45 0.05 0  0.46 0.05 0  0.47 0.05 0  0.48 0.05 0  0.49 0.05 0  0.5 0.05 0  0.51 0.05 0  0.52 0.05 0  0.53 0.05 0  0.54 0.05 0  0.55 0.05 0  0.5600000000000001 0.05 0  0.57 0.05 0  0.58 0.05 0  0.59 0.05 0  0.6 0.05 0  0.61 0.05 0  0.62 0.05 0  0.63 0.05 0  0.64 0.05 0  0.65 0.05 0  0.66 0.05 0  0.67 0.05 0  0.68 0.05 0  0.6899999999999999 0.05 0  0.7 0.05 0  0.71 0.05 0  0.72 0.05 0  0.73 0.05 0  0.74 0.05 0  0.75 0.05 0  0.76 0.05 0  0.77 0.05 0  0.78 0.05 0  0.79 0.05 0  0.8 0.05 0  0.8100000000000001 0.05 0  0.82 0.05 0  0.83 0.05 0  0.84 0.05 0  0.85 0.05 0  0.86 0.05 0  0.87 0.05 0  0.88 0.05 0  0.89 0.05 0  0.9 0.05 0  0.91 0.05 0  0.92 0.05 0  0.93 0.05 0  0.9399999999999999 0.05 0  0.95 0.05 0  0.96 0.05 0  0.97 0.05 0  0.98 0.05 0  0.99 0.05 0  1 0.05 0  0 0.06 0  0.01 0.06 0  0.02 0.06 0  0.03 0.06 0  0.04 0.06 0  0.05 0.06 0  0.06 0.06 0  0.07000000000000001 0.06 0  0.08 0.06 0  0.09 0.06 0  0.1 0.06 0  0.11 0.06 0  0.12 0.06 0  0.13 0.06 0  0.14 0.06 0  0.15 0.06 0  0.16 0.06 0  0.17 0.06 0  0.18 0.06 0  0.19 0.06 0  0.2 0.06 0  0.21 0.06 0  0.22 0.06 0  0.23 0.06 0  0.24 0.06 0  0.25 0.06 0  0.26 0.06 0  0.27 0.06 0  0.28 0.06 0  0.29 0.06 0  0.3 0.06 0  0.31 0.06 0  0.32 0.06 0  0.33 0.06 0  0.34 0.06 0  0.35 0.06 0  0.36 0.06 0  0.37 0.06 0  0.38 0.06 0  0.39 0.06 0  0.4 0.06 0  0.41 0.06 0  0.42 0.06 0  0.43 0.06 0  0.44 0.06 0  0.45 0.06 0  0.46 0.06 0  0.47 0.06 0  0.48 0.06 0  0.49 0.06 0  0.5 0.06 0  0.51 0.06 0  0.52 0.06 0  0.53 0.06 0  0.54 0.06 0  0.55 0.06 0  0.5600000000000001 0.06 0  0.57 0.06 0  0.58 0.06 0  0.59 0.06 0  0.6 0.06 0  0.61 0.06 0  0.62 0.06 0  0.63 0.06 0  0.64 0.06 0  0.65 0.06 0  0.66 0.06 0  0.67 0.06 0  0.68 0.06 0  0.6899999999999999 0.06 0  0.7 0.06 0  0.71 0.06 0  0.72 0.06 0  0.73 0.06 0  0.74 0.06 0  0.75 0.06 0  0.76 0.06 0  0.77 0.06 0  0.78 0.06 0  0.79 0.06 0  0.8 0.06 0  0.8100000000000001 0.06 0  0.82 0.06 0  0.83 0.06 0  0.84 0.06 0  0.85 0.06 0  0.86 0.06 0  0.87 0.06 0  0.88 0.06 0  0.89 0.06 0  0.9 0.06 0  0.91 0.06 0  0.92 0.06 0  0.93 0.06 0  0.9399999999999999 0.06 0  0.95 0.06 0  0.96 0.06 0  0.97 0.06 0  0.98 0.06 0  0.99 0.06 0  1 0.06 0  0 0.07000000000000001 0  0.01 0.07000000000000001 0  0.02 0.07000000000000001 0  0.03 0.07000000000000001 0  0.04 0.07000000000000001 0  0.05 0.07000000000000001 0  0.06 0.07000000000000001 0  0.07000000000000001 0.07000000000000001 0  0.08 0.07000000000000001 0  0.09 0.07000000000000001 0  0.1 0.07000000000000001 0  0.11 0.07000000000000001 0  0.12 0.07000000000000001 0  0.13 0.07000000000000001 0  0.14 0.07000000000000001 0  0.15 0.07000000000000001 0  0.16 0.07000000000000001 0  0.17 0.0700
[...]
<PointData  Scalars="f_17"> 
<DataArray  type="Float64"  Name="f_17"  format="ascii">0.0000000000000000e+00  5.0000000000000000e+01  5.0000000000000000e+01  5.0000000000000000e+01  5.0000000000000000e+01  5.0000000000000000e+01  5.0000000000000000e+01  5.0000000000000000e+01  5.0000000000000000e+01  5.0000000000000000e+01  5.0000000000000000e+01  5.0000000000000000e+01  5.0000000000000000e+01  5.0000000000000000e+01  5.0000000000000000e+01  5.0000000000000000e+01  5.0000000000000000e+01  5.0000000000000000e+01  5.0000000000000000e+01  5.0000000000000000e+01  5.0000000000000000e+01  5.0000000000000000e+01  5.0000000000000000e+01  5.0000000000000000e+01  5.0000000000000000e+01  5.0000000000000000e+01  5.0000000000000000e+01  5.0000000000000000e+01  5.0000000000000000e+01  5.0000000000000000e+01  5.0000000000000000e+01  5.0000000000000000e+01  5.0000000000000000e+01  5.0000000000000000e+01  5.0000000000000000e+01  5.0000000000000000e+01  5.0000000000000000e+01  5.0000000000000000e+01  5.0000000000000000e+01  5.0000000000000000e+01  5.0000000000000000e+01  5.0000000000000000e+01  5.0000000000000000e+01  5.0000000000000000e+01  5.0000000000000000e+01  5.0000000000000000e+01  5.0000000000000000e+01  5.0000000000000000e+01  5.0000000000000000e+01  5.0000000000000000e+01  5.0000000000000000e+01  5.0000000000000000e+01  5.0000000000000000e+01  5.0000000000000000e+01  5.0000000000000000e+01  5.0000000000000000e+01  5.0000000000000000e+01  5.0000000000000000e+01  5.0000000000000000e+01  5.0000000000000000e+01  5.0000000000000000e+01  5.0000000000000000e+01  5.0000000000000000e+01  5.0000000000000000e+01  5.0000000000000000e+01  5.0000000000000000e+01  5.0000000000000000e+01  5.0000000000000000e+01  5.0000000000000000e+01  5.0000000000000000e+01  5.0000000000000000e+01  5.0000000000000000e+01  5.0000000000000000e+01  5.0000000000000000e+01  5.0000000000000000e+01  5.0000000000000000e+01  5.0000000000000000e+01  5.0000000000000000e+01  5.0000000000000000e+01  5.0000000000000000e+01  5.0000000000000000e+01  5.0000000000000000e+01  5.0000000000000000e+01  5.0000000000000000e+01  5.0000000000000000e+01  5.0000000000000000e+01  5.0000000000000000e+01  5.0000000000000000e+01  5.0000000000000000e+01  5.0000000000000000e+01  5.0000000000000000e+01  5.0000000000000000e+01  5.0000000000000000e+01  5.0000000000000000e+01  5.0000000000000000e+01  5.0000000000000000e+01  5.0000000000000000e+01  5.0000000000000000e+01  5.0000000000000000e+01  5.0000000000000000e+01  0.0000000000000000e+00  0.0000000000000000e+00  2.4939793510231034e+01  3.5133339292206344e+01  3.9580198946863206e+01  4.1962921187677473e+01  4.3418164338562512e+01  4.4386018362987230e+01  4.5068271937905017e+01  4.5569572273865369e+01  4.5949372538475316e+01  4.6243884472547457e+01  4.6476402686316163e+01  4.6662585691411664e+01  4.6813345518683569e+01  4.6936518473355143e+01  4.7037876577714592e+01  4.7121764158164240e+01  4.7191512094820823e+01  4.7249715311128519e+01  4.7298423440968854e+01  4.7339274826692154e+01  4.7373592610718461e+01  4.7402454910357868e+01  4.7426746921313622e+01  4.7447200193907328e+01  4.7464422655062720e+01  4.7478921853203907e+01  4.7491123170844119e+01  4.7501384251733526e+01  4.7510006545591700e+01  4.7517244632584109e+01  4.7523313818733691e+01  4.7528396370632429e+01  4.7532646668580092e+01  4.7536195491761482e+01  4.7539153600503539e+01  4.7541614744301086e+01  4.7543658196852803e+01  4.7545350898434371e+01  4.7546749269858680e+01  4.7547900749803489e+01  4.7548845097514771e+01  4.7549615495167302e+01  4.7550239477975659e+01  4.7550739715141560e+01  4.7551134660609186e+01  4.7551439089174984e+01  4.7551664530596206e+01  4.7551819611841324e+01  4.7551910315425779e+01  4.7551940159802129e+01  4.7551910305960405e+01  4.7551819592691103e+01  4.7551664501320658e+01  4.7551439049109746e+01  4.7551134608861297e+01  4.7550739650583992e+01  4.7550239399240887e+01  4.7549615400640263e+01  4.7548844985325573e+01  4.7547900617820460e+01  4.7546749115682303e+01  4.7545350719392388e+01  4.7543657989997321e+01  4.7541614506408131e+01  4.7539153328076218e+01  4.7536195181036796e+01  4.7532646315540084e+01  4.7528395971020849e+01  4.7523313368078078e+01  4.7517244126224135e+01  4.7510005978713984e+01  4.7501383619413289e+01  4.7491122468093401e+01  4.7478921075026619e+01  4.7464421796515701e+01  4.7447199250167174e+01  4.7426745887748375e+01  4.7402453782602443e+01  4.7373591384752068e+01  4.7339273498916391e+01  4.7298422008284938e+01  4.7249713771010796e+01  4.7191510445384488e+01  4.7121762398224931e+01  4.7037874706836774e+01  4.6936516491886628e+01  4.6813343427773120e+01  4.6662583493005549e+01  4.6476400383130319e+01  4.6243882068009668e+01  4.5949370036629425e+01  4.5569569679225204e+01  4.5068269255233325e+01  4.4386015596944333e+01  4.3418161493083993e+01  4.1962918264648579e+01  3.9580195942498776e+01  3.5133336183920477e+01  2.4939790193775032e+01  0.0000000000000000e+00  0.0000000000000000e+00  1.4626296843459622e+01  2.4760099231760794e+01  3.0925687387569155e+01  3.4764413365782602e+01  3.7292682302260893e+01  3.9046123111369972e+01  4.0313816515870144e+01  4.1260626419671439e+01  4.1985984895010020e+01  4.2552919666565280e+01  4.3003124698222116e+01  4.3365201743850641e+01  4.3659388574372585e+01  4.3900389743828313e+01  4.4099136160162885e+01  4.4263915506821284e+01  4.4401119929003919e+01  4.4515753511216296e+01  4.4611784753839444e+01  4.4692396519104641e+01  4.4760166627036327e+01  4.4817200591310957e+01  4.4865230717105689e+01  4.4905691159071957e+01  4.4939775533267941e+01  4.4968481687144845e+01  4.4992646890593711e+01  4.5012975792555707e+01  4.5030062849286963e+01  4.5044410480595396e+01  4.5056443889509772e+01  4.5066523249298584e+01  4.5074953792859965e+01  4.5081994215067368e+01  4.5087863706099419e+01  4.5092747864319378e+01  4.5096803684670228e+01  4.5100163778383433e+01  4.5102939948852104e+01  4.5105226224453816e+01  4.5107101430230472e+01  4.5108631365357681e+01  4.5109870641333302e+01  4.5110864226078604e+01  4.5111648731133748e+01  4.5112253472445573e+01  4.5112701329576019e+01  4.5113009423261005e+01  4.5113189626938151e+01  4.5113248923985651e+01  4.5113189618850257e+01  4.5113009406890875e+01  4.5112701304533637e+01  4.5112253438142417e+01  4.5111648686778203e+01  4.5110864170670773e+01  4.5109870573658725e+01  4.5108631283980642e+01  4.5107101333486789e+01  4.5105226110443930e+01  4.5102939815435043e+01  4.5100163623171781e+01  4.5096803505026756e+01  4.5092747657356384e+01  4.5087863468680318e+01  4.5081993943812776e+01  4.5074953484157298e+01  4.5066522899316311e+01  4.5056443494217369e+01  4.5044410035788466e+01  4.5030062350618543e+01  4.5012975235573514e+01  4.4992646270783673e+01  4.4968480999980130e+01  4.4939774774263682e+01  4.4905690323844460e+01  4.4865229801435738e+01  4.4817199591209373e+01  4.4760165538810668e+01  4.4692395339424756e+01  4.4611783479800707e+01  4.4515752140397161e+01  4.4401118459515331e+01  4.4263913937345578e+01  4.4099134489978319e+01  4.3900387972815878e+01  4.3659386703000891e+01  4.3365199773134243e+01  4.3003122629647628e+01  4.2552917501976580e+01  4.1985982636441221e+01  4.1260624069109241e+01  4.0313814074910816e+01  3.9046120580706948e+01  3.7292679680869078e+01  3.4764410649525260e+01  3.0925684566794335e+01  2.4760096288794450e+01  1.4626293770490978e+01  0.0000000000000000e+00  0.0000000000000000e+00  1.0060412148926412e+01  1.8356921241423912e+01  2.4463684405229898e+01  2.8803552728004888e+01  3.1908837933449778e+01  3.4178328516652847e+01  3.5876367393614323e+01  3.7174527553052343e+01  3.8185553598054497e+01  3.8985282275234518e+01  3.9626064150174777e+01  4.0144961238650325e+01  4.0568832591392493e+01  4.0917559373341376e+01  4.1206139012746000e+01  4.1446077049327421e+01  4.1646332899268600e+01  4.1813975918631165e+01  4.1954649305041698e+01  4.2072903985861402e+01  4.2172442904520935e+01  4.2256302490160678e+01  4.2326989383830210e+01  4.2386584820297223e+01  4.2436825303837644e+01  4.2479165683024696e+01  4.2514828996884631e+01  4.2544846262933646e+01  4.2570088532956639e+01  4.2591292941492569e+01  4.2609084039639782e+01  4.2623991392411867e+01  4.2636464186999000e+01  4.2646883428155192e+01  4.2655572168951785e+01  4.2662804128610240e+01  4.2668810975713363e+01  4.2673788498795304e+01  4.2677901842767682e+01  4.2681289955668078e+01  4.2684069363462910e+01  4.2686337369357346e+01  4.2688174756949905e+01  4.2689648062639570e+01  4.2690811471202878e+01  4.2691708378838662e+01  4.2692372659795339e+01  4.2692829665606453e+01  4.2693096979706127e+01  4.2693184944556293e+01  4.2693096973227377e+01  4.2692829652480704e+01  4.2692372639684514e+01  4.2691708351231945e+01  4.2690811435412314e+01  4.2689648017794603e+01  4.2688174701990761e+01  4.2686337303028054e+01  4.2684069284303654e+01  4.2681289862007809e+01  4.2677901732717203e+01  4.2673788370241112e+01  4.2668810826313475e+01  4.2662803955791610e+01  4.2655571969910760e+01  4.2646883199861058e+01  4.2636463926201444e+01  4.2623991095652684e+01  4.2609083703269675e+01  4.2591292561693045e+01  4.2570088105767582e+01  4.2544845784286551e+01  4.2514828462641390e+01  4.2479165089021905e+01  4.2436824645935879e+01  4.2386584094434440e+01  4.2326988586078159e+01  4.2256301616783304e+01  4.2172441952032990e+01  4.2072902951084821e+01  4.1954648185158412e+01  4.1813974711228589e+01  4.1646331602375646e+01  4.1446075661437419e+01  4.1206137532822666e+01  4.0917557800804055e+01  4.0568830926075584e+01  4.0144959480731657e+01  3.9626062300065833e+01  3.8985280333423411e+01  3.8185551564889927e+01  3.7174525428449677e+01  3.5876365176657181e+01  3.4178326205049594e+01  3.1908835522795485e+01  2.8803550210845785e+01  2.4463681770253487e+01  1.8356918474367056e+01  1.0060409236747772e+01  0.0000000000000000e+00  0.0000000000000000e+00  7.5600398146306844e+00  1.4283349864754815e+01  1.9772679376038298e+01  2.4055073355953045e+01  2.7344633089260586e+01  2.9874952782723991e+01  3.1838675376709418e+01  3.3380204623278615e+01  3.4604399006632676e+01  3.5587031526792018e+01  3.6383249043880348e+01  3.7033684750421692e+01  3.7568707603725329e+01  3.8011347802862993e+01  3.8379317239009524e+01  3.8686417976696788e+01  3.8943536158134620e+01  3.9159352792424116e+01  3.9340859068401514e+01  3.9493735029222258e+01  3.9622631511410212e+01  3.9731382722604195e+01  3.9823168464599156e+01  3.9900639358393505e+01  3.9966014568892270e+01  4.0021158860191406e+01  4.0067643948357684e+01  4.0106797801174395e+01  4.0139744593233019e+01  4.0167437345675090e+01  4.0190684785146942e+01  4.0210173592798590e+01  4.0226486944416507e+01  4.0240120041091267e+01  4.0251493177803525e+01  4.0260962781844292e+01  4.0268830764603386e+01  4.0275352462078814e+01  4.0280743386439482e+01  4.0285184969396582e+01  4.0288829445233823e+01  4.0291803995052440e+01  4.0294214252542901e+01  4.0296147254227229e+01  4.0297673902725109e+01  4.0298850999501440e+01  4.0299722893214955e+01  4.0300322780803604e+01  4.0300673690479897e+01  4.0300789168611800e+01  4.0300673685819220e+01  4.0300322771340511e+01  4.0299722878664198e+01  4.0298850979431194e+01  4.0297673876552096e+01  4.0296147221210880e+01  4.0294214211778097e+01  4.0291803945461517e+01  4.0288829385557982e+01  4.0285184898187246e+01  4.0280743302049814e+01  4.0275352362656051e+01  4.0268830648082464e+01  4.0260962645943117e+01  4.0251493020020938e+01  4.0240119858707786e+01  4.0226486734498749e+01  4.0210173352208052e+01  4.0190684510553012e+01  4.0167437033573663e+01  4.0139744239970341e+01  4.0106797402976142e+01  4.0067643501364131e+01  4.0021158360497587e+01  3.9966014012593078e+01  3.9900638741632839e+01  3.9823167783621855e+01  3.9731381973809718e+01  3.9622630691405924e+01  3.9493734134874437e+01  3.9340858096881448e+01  3.9159351741246411e+01  3.8943535025184268e+01  3.8686416760242032e+01  3.8379315937695608e+01  3.8011346415682659e+01  3.7568706129961292e+01  3.7033683189554736e+01  3.6383247395456081e+01  3.5587029790238226e+01  3.4604397181016203e+01  3.3380202706989039e+01  3.1838673367052802e+01  2.9874950675414009e+01  2.7344630877809564e+01  2.4055071031033194e+01  1.9772676925030328e+01  1.4283347271735547e+01  7.5600370599125082e+00  0.0000000000000000e+00  0.0000000000000000e+00  5.9889545576414935e+00  1.1523844365168951e+01  1.6321652926468232e+01  2.0306589209464253e+01  2.3540426241444326e+01  2.6140405505028873e+01  2.8228848830234888e+01  2.9912325802766105e+01  3.1276893443456139e+01  3.2389799011790011e+01  3.3302966649782483e+01  3.4056441196788917e+01  3.4681242970939252e+01  3.5201576696223185e+01  3.5636490974766346e+01  3.6001111065720991e+01  3.6307553087130735e+01  3.6565604302972076e+01  3.6783232565355370e+01  3.6966970862448854e+01  3.7122210159118175e+01  3.7253424464178885e+01  3.7364345430913403e+01  3.7458099068396443e+01  3.7537313762858979e+01  3.7604206385600087e+01  3.7660651516969708e+01  3.7708237548132445e+01  3.7748312495920977e+01  3.7782021684366114e+01  3.7810338941268888e+01  3.7834092581131863e+01  3.7853987162435253e+01  3.7870621792887007e+01  3.7884505593012243e+01  3.7896070803260912e+01  3.7905683923166620e+01  3.7913655195945807e+01  3.7920246693067405e+01  3.7925679206849296e+01  3.7930138122120532e+01  3.7933778408221535e+01  3.7936728848421218e+01  3.7939095603930483e+01  3.7940965193111701e+01  3.7942406952462953e+01  3.7943475033913259e+01  3.7944209982438871e+01  3.7944639928641045e+01  3.7944781422418245e+01  3.7944639925982123e+01  3.7944209977005897e+01  3.7943475025474299e+01  3.7942406940665535e+01  3.7940965177477437e+01  3.7939095583848342e+01  3.7936728823139106e+01  3.7933778376837182e+01  3.7930138083571137e+01  3.7925679159901129e+01  3.7920246636305059e+01  3.7913655127762254e+01  3.7905683841753948e+01  3.7896070706602814e+01  3.7884505478878658e+01  3.7870621658831475e+01  3.7853987005795723e+01  3.7834092399035818e+01  3.7810338730642663e+01  3.7782021441949695e+01  3.7748312218288049e+01  3.7708237231716339e+01  3.7660651158094851e+01  3.7604205980519289e+01  3.7537313307795564e+01  3.7458098559590887e+01  3.7364344864672994e+01  3.7253423836929279e+01  3.7122209467454539e+01  3.6966970103184906e+01  3.6783231735566950e+01  3.6565603400032884e+01  3.6307552108736047e+01  3.6001110009895910e+01  3.5636489839854121e+01  3.5201575480848952e+01  3.4681241673943632e+01  3.4056439817126183e+01  3.3302965186376568e+01  3.2389797463341168e+01  3.1276891808190420e+01  2.9912324078119219e+01  2.8228847012463916e+01  2.6140403588751152e+01  2.3540424219118474e+01  2.0306587070855183e+01  1.6321650658146762e+01  1.1523841949967634e+01  5.9889519735977021e+00  0.0000000000000000e+00  0.0000000000000000e+00  4.9074784769767525e+00  9.5435983316489423e+00  1.3713046274437552e+01  1.7326138203111118e+01  2.0381004126260112e+01  2.2927373649157765e+01  2.5035481082193201e+01  2.6777238687928712e+01  2.8217482873079792e+01  2.9411181758610521e+01  3.0403517399800542e+01  3.1231086345444798e+01  3.1923367270238558e+01  3.2504098950169798e+01  3.2992450470243618e+01  3.3403969212962693e+01  3.3751331163518955e+01  3.4044928390718958e+01  3.4293327359733532e+01  3.4503626695379900e+01  3.4681737363379554e+01  3.4832603168963495e+01  3.4960375314029967e+01  3.5068551487285120e+01  3.5160087452870805e+01  3.5237487198608342e+01  3.5302876267359196e+01  3.5358061811510261e+01  3.5404582093386018e+01  3.5443747536622183e+01  3.5476674965011604e+01  3.5504316308604047e+01  3.5527482784049795e+01  3.5546865346593528e+01  3.5563052049299003e+01  3.5576542819474945e+01  3.5587762064218239e+01  3.5597069439981482e+01  3.5604769060182228e+01  3.5611117366373854e+01  3.5616329849545522e+01  3.5620586776545579e+01  3.5624038050762415e+01  3.5626807314763482e+01  3.5628995384602696e+01  3.5630683090184561e+01  3.5631933582818057e+01  3.5632794159434610e+01  3.5633297642501098e+01  3.5633463345127581e+01  3.5633297642000194e+01  3.5632794158344481e+01  3.5631933580959895e+01  3.5630683087285043e+01  3.5628995380287662e+01  3.5626807308549992e+01  3.5624038042048888e+01  3.5620586764601050e+01  3.5616329833497126e+01  3.5611117345193989e+01  3.5604769032675016e+01  3.5597069404769897e+01  3.5587762019731443e+01  3.5576542763937113e+01  3.5563051980720125e+01  3.5546865262762829e+01  3.5527482682532529e+01  3.5504316186742280e+01  3.5476674819929698e+01  3.5443747365237741e+01  3.5404581892426343e+01  3.5358061577535111e+01  3.5302875996789581e+01  3.5237486887761719e+01  3.5160087098001597e+01  3.5068551084630535e+01  3.4960374859859485e+01  3.4832602659630773e+01  3.4681736795374754e+01  3.4503626065379969e+01  3.4293326664647765e+01  3.4044927627726281e+01  3.3751330330093786e+01  3.3403968306884465e+01  3.2992449489586178e+01  3.2504097893265588e+01  3.1923366135612266e+01  3.1231085131711158e+01  3.0403516105520691e+01  2.9411180382100952e+01  2.8217481412168599e+01  2.6777237139654538e+01  2.5035479442445290e+01  2.2927371912260416e+01  2.0381002284512817e+01  1.7326136246300095e+01  1.3713044189318039e+01  9.5435961013386184e+00  4.9074760801233461e+00  0.0000000000000000e+00  0.0000000000000000e+00  4.1142095167130517e+00  8.0543027598091488e+00  1.1683670292737171e+01  1.4922608759434958e+01  1.7745947939543171e+01  2.0167890337698488e+01  2.2224815705390323e+01  2.3961971828903089e+01  2.5425245922283644e+01  2.6656960362995672e+01  2.7694218941975169e+01  2.8568645097950963e+01  2.9306778007812131e+01  2.9930716728790230e+01  3.0458805731403810e+01  3.0906269250820877e+01  3.1285761118960998e+01  3.1607825208359404e+01  3.1881273887417453e+01  3.2113496085581851e+01  3.2310707005859733e+01  3.2478150391284835e+01  3.2620262615625990e+01  3.2740806211607733e+01  3.2842978968547683e+01  3.2929503484140064e+01  3.3002701039041511e+01  3.3064552850688180e+01  3.3116751120660403e+01  3.3160741785438908e+01  3.3197760485294708e+01  3.3228862956919251e+01  3.3254950813412243e+01  3.3276793485511739e+01  3.3295046948822801e+01  3.3310269744197804e+01  3.3322936705312522e+01  3.3333450733401882e+01  3.3342152899852223e+01  3.3349331109610617e+01  3.3355227519629977e+01  3.3360044874847098e+01  3.3363951897953392e+01  3.3367087847266973e+01  3.3369566338417073e+01  3.3371478509567915e+01  3.3372895595966121e+01  3.3373870967227845e+01  3.3374441669625412e+01  3.3374629505383801e+01  3.3374441671409961e+01  3.3373870970735254e+01  3.3372895601070418e+01  3.3371478516074127e+01  3.3369566346053880e+01  3.3367087855677390e+01  3.3363951906683170e+01  3.3360044883331753e+01  3.3355227527179835e+01  3.3349331115394939e+01  3.3342152902882688e+01  3.3333450732515814e+01  3.3322936699156500e+01  3.3310269731212294e+01  3.3295046927228533e+01  3.3276793453298758e+01  3.3254950768332044e+01  3.3228862896481317e+01  3.3197760406767564e+01  3.3160741685857381e+01  3.3116750996838647e+01  3.3064552699239464e+01  3.3002700856405170e+01  3.2929503266615271e+01  3.2842978712333910e+01  3.2740805912851137e+01  3.2620262270470825e+01  3.2478149995928156e+01  3.2310706556607634e+01  3.2113495578904455e+01  3.1881273320000162e+01  3.1607824577146427e+01  3.1285760421187696e+01  3.0906268484030523e+01  3.0458804893444107e+01  2.9930715817784961e+01  2.9306777022102327e+01  2.8568644036000958e+01  2.7694217802238899e+01  2.6656959143737922e+01  2.5425244621353247e+01  2.3961970443455918e+01  2.2224814231562611e+01  2.0167888770234740e+01  1.7745946271386771e+01  1.4922606981288753e+01  1.1683668392594532e+01  8.0543007224441556e+00  4.1142073231157985e+00  0.0000000000000000e+00  0.0000000000000000e+00  3.5048576861712499e+00  6.8918067792453339e+00  1.0063018048582894e+01  1.2953012059302480e+01  1.5530446455397835e+01  1.7792138404443275e+01  1.9754028893859687e+01  2.1442693544383626e+01  2.2889003474855002e+01  2.4124087725320265e+01  2.5177108568058337e+01  2.6074250270145065e+01  2.6838432181557753e+01  2.7489410967078843e+01  2.8044065207270677e+01  2.8516744563758269e+01  2.8919621438594316e+01  2.9263015682580615e+01  2.9555680957933244e+01  2.9805050762166509e+01  3.0017446616505897e