<?xml version="1.0"?>
<VTKFile type="UnstructuredGrid"  version="0.1"  >
<UnstructuredGrid>
<Piece  NumberOfPoints="10201" NumberOfCells="20000">
<Points>
<DataArray  type="Float64"  NumberOfComponents="3"  format="ascii">0 0 0  0.01 0 0  0.02 0 0  0.03 0 0  0.04 0 0  0.05 0 0  0.06 0 0  0.07000000000000001 0 0  0.08 0 0  0.09 0 0  0.1 0 0  0.11 0 0  0.12 0 0  0.13 0 0  0.14 0 0  0.15 0 0  0.16 0 0  0.17 0 0  0.18 0 0  0.19 0 0  0.2 0 0  0.21 0 0  0.22 0 0  0.23 0 0  0.24 0 0  0.25 0 0  0.26 0 0  0.27 0 0  0.28 0 0  0.29 0 0  0.3 0 0  0.31 0 0  0.32 0 0  0.33 0 0  0.34 0 0  0.35 0 0  0.36 0 0  0.37 0 0  0.38 0 0  0.39 0 0  0.4 0 0  0.41 0 0  0.42 0 0  0.43 0 0  0.44 0 0  0.45 0 0  0.46 0 0  0.47 0 0  0.48 0 0  0.49 0 0  0.5 0 0  0.51 0 0  0.52 0 0  0.53 0 0  0.54 0 0  0.55 0 0  0.5600000000000001 0 0  0.57 0 0  0.58 0 0  0.59 0 0  0.6 0 0  0.61 0 0  0.62 0 0  0.63 0 0  0.64 0 0  0.65 0 0  0.66 0 0  0.67 0 0  0.68 0 0  0.6899999999999999 0 0  0.7 0 0  0.71 0 0  0.72 0 0  0.73 0 0  0.74 0 0  0.75 0 0  0.76 0 0  0.77 0 0  0.78 0 0  0.79 0 0  0.8 0 0  0.8100000000000001 0 0  0.82 0 0  0.83 0 0  0.84 0 0  0.85 0 0  0.86 0 0  0.87 0 0  0.88 0 0  0.89 0 0  0.9 0 0  0.91 0 0  0.92 0 0  0.93 0 0  0.9399999999999999 0 0  0.95 0 0  0.96 0 0  0.97 0 0  0.98 0 0  0.99 0 0  1 0 0  0 0.01 0  0.01 0.01 0  0.02 0.01 0  0.03 0.01 0  0.04 0.01 0  0.05 0.01 0  0.06 0.01 0  0.07000000000000001 0.01 0  0.08 0.01 0  0.09 0.01 0  0.1 0.01 0  0.11 0.01 0  0.12 0.01 0  0.13 0.01 0  0.14 0.01 0  0.15 0.01 0  0.16 0.01 0  0.17 0.01 0  0.18 0.01 0  0.19 0.01 0  0.2 0.01 0  0.21 0.01 0  0.22 0.01 0  0.23 0.01 0  0.24 0.01 0  0.25 0.01 0  0.26 0.01 0  0.27 0.01 0  0.28 0.01 0  0.29 0.01 0  0.3 0.01 0  0.31 0.01 0  0.32 0.01 0  0.33 0.01 0  0.34 0.01 0  0.35 0.01 0  0.36 0.01 0  0.37 0.01 0  0.38 0.01 0  0.39 0.01 0  0.4 0.01 0  0.41 0.01 0  0.42 0.01 0  0.43 0.01 0  0.44 0.01 0  0.45 0.01 0  0.46 0.01 0  0.47 0.01 0  0.48 0.01 0  0.49 0.01 0  0.5 0.01 0  0.51 0.01 0  0.52 0.01 0  0.53 0.01 0  0.54 0.01 0  0.55 0.01 0  0.5600000000000001 0.01 0  0.57 0.01 0  0.58 0.01 0  0.59 0.01 0  0.6 0.01 0  0.61 0.01 0  0.62 0.01 0  0.63 0.01 0  0.64 0.01 0  0.65 0.01 0  0.66 0.01 0  0.67 0.01 0  0.68 0.01 0  0.6899999999999999 0.01 0  0.7 0.01 0  0.71 0.01 0  0.72 0.01 0  0.73 0.01 0  0.74 0.01 0  0.75 0.01 0  0.76 0.01 0  0.77 0.01 0  0.78 0.01 0  0.79 0.01 0  0.8 0.01 0  0.8100000000000001 0.01 0  0.82 0.01 0  0.83 0.01 0  0.84 0.01 0  0.85 0.01 0  0.86 0.01 0  0.87 0.01 0  0.88 0.01 0  0.89 0.01 0  0.9 0.01 0  0.91 0.01 0  0.92 0.01 0  0.93 0.01 0  0.9399999999999999 0.01 0  0.95 0.01 0  0.96 0.01 0  0.97 0.01 0  0.98 0.01 0  0.99 0.01 0  1 0.01 0  0 0.02 0  0.01 0.02 0  0.02 0.02 0  0.03 0.02 0  0.04 0.02 0  0.05 0.02 0  0.06 0.02 0  0.07000000000000001 0.02 0  0.08 0.02 0  0.09 0.02 0  0.1 0.02 0  0.11 0.02 0  0.12 0.02 0  0.13 0.02 0  0.14 0.02 0  0.15 0.02 0  0.16 0.02 0  0.17 0.02 0  0.18 0.02 0  0.19 0.02 0  0.2 0.02 0  0.21 0.02 0  0.22 0.02 0  0.23 0.02 0  0.24 0.02 0  0.25 0.02 0  0.26 0.02 0  0.27 0.02 0  0.28 0.02 0  0.29 0.02 0  0.3 0.02 0  0.31 0.02 0  0.32 0.02 0  0.33 0.02 0  0.34 0.02 0  0.35 0.02 0  0.36 0.02 0  0.37 0.02 0  0.38 0.02 0  0.39 0.02 0  0.4 0.02 0  0.41 0.02 0  0.42 0.02 0  0.43 0.02 0  0.44 0.02 0  0.45 0.02 0  0.46 0.02 0  0.47 0.02 0  0.48 0.02 0  0.49 0.02 0  0.5 0.02 0  0.51 0.02 0  0.52 0.02 0  0.53 0.02 0  0.54 0.02 0  0.55 0.02 0  0.5600000000000001 0.02 0  0.57 0.02 0  0.58 0.02 0  0.59 0.02 0  0.6 0.02 0  0.61 0.02 0  0.62 0.02 0  0.63 0.02 0  0.64 0.02 0  0.65 0.02 0  0.66 0.02 0  0.67 0.02 0  0.68 0.02 0  0.6899999999999999 0.02 0  0.7 0.02 0  0.71 0.02 0  0.72 0.02 0  0.73 0.02 0  0.74 0.02 0  0.75 0.02 0  0.76 0.02 0  0.77 0.02 0  0.78 0.02 0  0.79 0.02 0  0.8 0.02 0  0.8100000000000001 0.02 0  0.82 0.02 0  0.83 0.02 0  0.84 0.02 0  0.85 0.02 0  0.86 0.02 0  0.87 0.02 0  0.88 0.02 0  0.89 0.02 0  0.9 0.02 0  0.91 0.02 0  0.92 0.02 0  0.93 0.02 0  0.9399999999999999 0.02 0  0.95 0.02 0  0.96 0.02 0  0.97 0.02 0  0.98 0.02 0  0.99 0.02 0  1 0.02 0  0 0.03 0  0.01 0.03 0  0.02 0.03 0  0.03 0.03 0  0.04 0.03 0  0.05 0.03 0  0.06 0.03 0  0.07000000000000001 0.03 0  0.08 0.03 0  0.09 0.03 0  0.1 0.03 0  0.11 0.03 0  0.12 0.03 0  0.13 0.03 0  0.14 0.03 0  0.15 0.03 0  0.16 0.03 0  0.17 0.03 0  0.18 0.03 0  0.19 0.03 0  0.2 0.03 0  0.21 0.03 0  0.22 0.03 0  0.23 0.03 0  0.24 0.03 0  0.25 0.03 0  0.26 0.03 0  0.27 0.03 0  0.28 0.03 0  0.29 0.03 0  0.3 0.03 0  0.31 0.03 0  0.32 0.03 0  0.33 0.03 0  0.34 0.03 0  0.35 0.03 0  0.36 0.03 0  0.37 0.03 0  0.38 0.03 0  0.39 0.03 0  0.4 0.03 0  0.41 0.03 0  0.42 0.03 0  0.43 0.03 0  0.44 0.03 0  0.45 0.03 0  0.46 0.03 0  0.47 0.03 0  0.48 0.03 0  0.49 0.03 0  0.5 0.03 0  0.51 0.03 0  0.52 0.03 0  0.53 0.03 0  0.54 0.03 0  0.55 0.03 0  0.5600000000000001 0.03 0  0.57 0.03 0  0.58 0.03 0  0.59 0.03 0  0.6 0.03 0  0.61 0.03 0  0.62 0.03 0  0.63 0.03 0  0.64 0.03 0  0.65 0.03 0  0.66 0.03 0  0.67 0.03 0  0.68 0.03 0  0.6899999999999999 0.03 0  0.7 0.03 0  0.71 0.03 0  0.72 0.03 0  0.73 0.03 0  0.74 0.03 0  0.75 0.03 0  0.76 0.03 0  0.77 0.03 0  0.78 0.03 0  0.79 0.03 0  0.8 0.03 0  0.8100000000000001 0.03 0  0.82 0.03 0  0.83 0.03 0  0.84 0.03 0  0.85 0.03 0  0.86 0.03 0  0.87 0.03 0  0.88 0.03 0  0.89 0.03 0  0.9 0.03 0  0.91 0.03 0  0.92 0.03 0  0.93 0.03 0  0.9399999999999999 0.03 0  0.95 0.03 0  0.96 0.03 0  0.97 0.03 0  0.98 0.03 0  0.99 0.03 0  1 0.03 0  0 0.04 0  0.01 0.04 0  0.02 0.04 0  0.03 0.04 0  0.04 0.04 0  0.05 0.04 0  0.06 0.04 0  0.07000000000000001 0.04 0  0.08 0.04 0  0.09 0.04 0  0.1 0.04 0  0.11 0.04 0  0.12 0.04 0  0.13 0.04 0  0.14 0.04 0  0.15 0.04 0  0.16 0.04 0  0.17 0.04 0  0.18 0.04 0  0.19 0.04 0  0.2 0.04 0  0.21 0.04 0  0.22 0.04 0  0.23 0.04 0  0.24 0.04 0  0.25 0.04 0  0.26 0.04 0  0.27 0.04 0  0.28 0.04 0  0.29 0.04 0  0.3 0.04 0  0.31 0.04 0  0.32 0.04 0  0.33 0.04 0  0.34 0.04 0  0.35 0.04 0  0.36 0.04 0  0.37 0.04 0  0.38 0.04 0  0.39 0.04 0  0.4 0.04 0  0.41 0.04 0  0.42 0.04 0  0.43 0.04 0  0.44 0.04 0  0.45 0.04 0  0.46 0.04 0  0.47 0.04 0  0.48 0.04 0  0.49 0.04 0  0.5 0.04 0  0.51 0.04 0  0.52 0.04 0  0.53 0.04 0  0.54 0.04 0  0.55 0.04 0  0.5600000000000001 0.04 0  0.57 0.04 0  0.58 0.04 0  0.59 0.04 0  0.6 0.04 0  0.61 0.04 0  0.62 0.04 0  0.63 0.04 0  0.64 0.04 0  0.65 0.04 0  0.66 0.04 0  0.67 0.04 0  0.68 0.04 0  0.6899999999999999 0.04 0  0.7 0.04 0  0.71 0.04 0  0.72 0.04 0  0.73 0.04 0  0.74 0.04 0  0.75 0.04 0  0.76 0.04 0  0.77 0.04 0  0.78 0.04 0  0.79 0.04 0  0.8 0.04 0  0.8100000000000001 0.04 0  0.82 0.04 0  0.83 0.04 0  0.84 0.04 0  0.85 0.04 0  0.86 0.04 0  0.87 0.04 0  0.88 0.04 0  0.89 0.04 0  0.9 0.04 0  0.91 0.04 0  0.92 0.04 0  0.93 0.04 0  0.9399999999999999 0.04 0  0.95 0.04 0  0.96 0.04 0  0.97 0.04 0  0.98 0.04 0  0.99 0.04 0  1 0.04 0  0 0.05 0  0.01 0.05 0  0.02 0.05 0  0.03 0.05 0  0.04 0.05 0  0.05 0.05 0  0.06 0.05 0  0.07000000000000001 0.05 0  0.08 0.05 0  0.09 0.05 0  0.1 0.05 0  0.11 0.05 0  0.12 0.05 0  0.13 0.05 0  0.14 0.05 0  0.15 0.05 0  0.16 0.05 0  0.17 0.05 0  0.18 0.05 0  0.19 0.05 0  0.2 0.05 0  0.21 0.05 0  0.22 0.05 0  0.23 0.05 0  0.24 0.05 0  0.25 0.05 0  0.26 0.05 0  0.27 0.05 0  0.28 0.05 0  0.29 0.05 0  0.3 0.05 0  0.31 0.05 0  0.32 0.05 0  0.33 0.05 0  0.34 0.05 0  0.35 0.05 0  0.36 0.05 0  0.37 0.05 0  0.38 0.05 0  0.39 0.05 0  0.4 0.05 0  0.41 0.05 0  0.42 0.05 0  0.43 0.05 0  0.44 0.05 0  0.45 0.05 0  0.46 0.05 0  0.47 0.05 0  0.48 0.05 0  0.49 0.05 0  0.5 0.05 0  0.51 0.05 0  0.52 0.05 0  0.53 0.05 0  0.54 0.05 0  0.55 0.05 0  0.5600000000000001 0.05 0  0.57 0.05 0  0.58 0.05 0  0.59 0.05 0  0.6 0.05 0  0.61 0.05 0  0.62 0.05 0  0.63 0.05 0  0.64 0.05 0  0.65 0.05 0  0.66 0.05 0  0.67 0.05 0  0.68 0.05 0  0.6899999999999999 0.05 0  0.7 0.05 0  0.71 0.05 0  0.72 0.05 0  0.73 0.05 0  0.74 0.05 0  0.75 0.05 0  0.76 0.05 0  0.77 0.05 0  0.78 0.05 0  0.79 0.05 0  0.8 0.05 0  0.8100000000000001 0.05 0  0.82 0.05 0  0.83 0.05 0  0.84 0.05 0  0.85 0.05 0  0.86 0.05 0  0.87 0.05 0  0.88 0.05 0  0.89 0.05 0  0.9 0.05 0  0.91 0.05 0  0.92 0.05 0  0.93 0.05 0  0.9399999999999999 0.05 0  0.95 0.05 0  0.96 0.05 0  0.97 0.05 0  0.98 0.05 0  0.99 0.05 0  1 0.05 0  0 0.06 0  0.01 0.06 0  0.02 0.06 0  0.03 0.06 0  0.04 0.06 0  0.05 0.06 0  0.06 0.06 0  0.07000000000000001 0.06 0  0.08 0.06 0  0.09 0.06 0  0.1 0.06 0  0.11 0.06 0  0.12 0.06 0  0.13 0.06 0  0.14 0.06 0  0.15 0.06 0  0.16 0.06 0  0.17 0.06 0  0.18 0.06 0  0.19 0.06 0  0.2 0.06 0  0.21 0.06 0  0.22 0.06 0  0.23 0.06 0  0.24 0.06 0  0.25 0.06 0  0.26 0.06 0  0.27 0.06 0  0.28 0.06 0  0.29 0.06 0  0.3 0.06 0  0.31 0.06 0  0.32 0.06 0  0.33 0.06 0  0.34 0.06 0  0.35 0.06 0  0.36 0.06 0  0.37 0.06 0  0.38 0.06 0  0.39 0.06 0  0.4 0.06 0  0.41 0.06 0  0.42 0.06 0  0.43 0.06 0  0.44 0.06 0  0.45 0.06 0  0.46 0.06 0  0.47 0.06 0  0.48 0.06 0  0.49 0.06 0  0.5 0.06 0  0.51 0.06 0  0.52 0.06 0  0.53 0.06 0  0.54 0.06 0  0.55 0.06 0  0.5600000000000001 0.06 0  0.57 0.06 0  0.58 0.06 0  0.59 0.06 0  0.6 0.06 0  0.61 0.06 0  0.62 0.06 0  0.63 0.06 0  0.64 0.06 0  0.65 0.06 0  0.66 0.06 0  0.67 0.06 0  0.68 0.06 0  0.6899999999999999 0.06 0  0.7 0.06 0  0.71 0.06 0  0.72 0.06 0  0.73 0.06 0  0.74 0.06 0  0.75 0.06 0  0.76 0.06 0  0.77 0.06 0  0.78 0.06 0  0.79 0.06 0  0.8 0.06 0  0.8100000000000001 0.06 0  0.82 0.06 0  0.83 0.06 0  0.84 0.06 0  0.85 0.06 0  0.86 0.06 0  0.87 0.06 0  0.88 0.06 0  0.89 0.06 0  0.9 0.06 0  0.91 0.06 0  0.92 0.06 0  0.93 0.06 0  0.9399999999999999 0.06 0  0.95 0.06 0  0.96 0.06 0  0.97 0.06 0  0.98 0.06 0  0.99 0.06 0  1 0.06 0  0 0.07000000000000001 0  0.01 0.07000000000000001 0  0.02 0.07000000000000001 0  0.03 0.07000000000000001 0  0.04 0.07000000000000001 0  0.05 0.07000000000000001 0  0.06 0.07000000000000001 0  0.07000000000000001 0.07000000000000001 0  0.08 0.07000000000000001 0  0.09 0.07000000000000001 0  0.1 0.07000000000000001 0  0.11 0.07000000000000001 0  0.12 0.07000000000000001 0  0.13 0.07000000000000001 0  0.14 0.07000000000000001 0  0.15 0.07000000000000001 0  0.16 0.07000000000000001 0  0.17 0.0700
[...]
<PointData  Scalars="f_17"> 
<DataArray  type="Float64"  Name="f_17"  format="ascii">0.0000000000000000e+00  5.0000000000000000e+01  5.0000000000000000e+01  5.0000000000000000e+01  5.0000000000000000e+01  5.0000000000000000e+01  5.0000000000000000e+01  5.0000000000000000e+01  5.0000000000000000e+01  5.0000000000000000e+01  5.0000000000000000e+01  5.0000000000000000e+01  5.0000000000000000e+01  5.0000000000000000e+01  5.0000000000000000e+01  5.0000000000000000e+01  5.0000000000000000e+01  5.0000000000000000e+01  5.0000000000000000e+01  5.0000000000000000e+01  5.0000000000000000e+01  5.0000000000000000e+01  5.0000000000000000e+01  5.0000000000000000e+01  5.0000000000000000e+01  5.0000000000000000e+01  5.0000000000000000e+01  5.0000000000000000e+01  5.0000000000000000e+01  5.0000000000000000e+01  5.0000000000000000e+01  5.0000000000000000e+01  5.0000000000000000e+01  5.0000000000000000e+01  5.0000000000000000e+01  5.0000000000000000e+01  5.0000000000000000e+01  5.0000000000000000e+01  5.0000000000000000e+01  5.0000000000000000e+01  5.0000000000000000e+01  5.0000000000000000e+01  5.0000000000000000e+01  5.0000000000000000e+01  5.0000000000000000e+01  5.0000000000000000e+01  5.0000000000000000e+01  5.0000000000000000e+01  5.0000000000000000e+01  5.0000000000000000e+01  5.0000000000000000e+01  5.0000000000000000e+01  5.0000000000000000e+01  5.0000000000000000e+01  5.0000000000000000e+01  5.0000000000000000e+01  5.0000000000000000e+01  5.0000000000000000e+01  5.0000000000000000e+01  5.0000000000000000e+01  5.0000000000000000e+01  5.0000000000000000e+01  5.0000000000000000e+01  5.0000000000000000e+01  5.0000000000000000e+01  5.0000000000000000e+01  5.0000000000000000e+01  5.0000000000000000e+01  5.0000000000000000e+01  5.0000000000000000e+01  5.0000000000000000e+01  5.0000000000000000e+01  5.0000000000000000e+01  5.0000000000000000e+01  5.0000000000000000e+01  5.0000000000000000e+01  5.0000000000000000e+01  5.0000000000000000e+01  5.0000000000000000e+01  5.0000000000000000e+01  5.0000000000000000e+01  5.0000000000000000e+01  5.0000000000000000e+01  5.0000000000000000e+01  5.0000000000000000e+01  5.0000000000000000e+01  5.0000000000000000e+01  5.0000000000000000e+01  5.0000000000000000e+01  5.0000000000000000e+01  5.0000000000000000e+01  5.0000000000000000e+01  5.0000000000000000e+01  5.0000000000000000e+01  5.0000000000000000e+01  5.0000000000000000e+01  5.0000000000000000e+01  5.0000000000000000e+01  5.0000000000000000e+01  5.0000000000000000e+01  0.0000000000000000e+00  0.0000000000000000e+00  2.4928421434106937e+01  3.5110643252342022e+01  3.9546276014688772e+01  4.1917915338757318e+01  4.3362264583994047e+01  4.4319456309051183e+01  4.4991318836561760e+01  4.5482535629887124e+01  4.5852592345972738e+01  4.6137729159358152e+01  4.6361264848291000e+01  4.6538877699890413e+01  4.6681495083427180e+01  4.6796964240031819e+01  4.6891063833932030e+01  4.6968140715277073e+01  4.7031524404631448e+01  4.7083804867490393e+01  4.7127023506545903e+01  4.7162807515077212e+01  4.7192466344104716e+01  4.7217062263287588e+01  4.7237462851966669e+01  4.7254380656153153e+01  4.7268403577252585e+01  4.7280018463539420e+01  4.7289629644190512e+01  4.7297573648970094e+01  4.7304131013981767e+01  4.7309535834144441e+01  4.7313983553097067e+01  4.7317637359318780e+01  4.7320633468789630e+01  4.7323085509650532e+01  4.7325088176255427e+01  4.7326720284039261e+01  4.7328047329424059e+01  4.7329123638214092e+01  4.7329994169891080e+01  4.7330696032705355e+01  4.7331259754571249e+01  4.7331710346876719e+01  4.7332068191918303e+01  4.7332349779425144e+01  4.7332568313264467e+01  4.7332734205731079e+01  4.7332855473653737e+01  4.7332938047787870e+01  4.7332986004507099e+01  4.7333001726583269e+01  4.7332985997790622e+01  4.7332938034131018e+01  4.7332855452605010e+01  4.7332734176604198e+01  4.7332568275127393e+01  4.7332349731086019e+01  4.7332068131908507e+01  4.7331710273431192e+01  4.7331259665606467e+01  4.7330695925795922e+01  4.7329994042245502e+01  4.7329123486650268e+01  4.7328047150345760e+01  4.7326720073414457e+01  4.7325087929597991e+01  4.7323085222006512e+01  4.7320633134728695e+01  4.7317636972933663e+01  4.7313983108012003e+01  4.7309535323533382e+01  4.7304130430598640e+01  4.7297572985191934e+01  4.7289628892075015e+01  4.7280017614896785e+01  4.7268402623732776e+01  4.7254379589347970e+01  4.7237461663526652e+01  4.7217060945051877e+01  4.7192464888241879e+01  4.7162805914234973e+01  4.7127021754006584e+01  4.7083802957326952e+01  4.7031522331860316e+01  4.6968138476002224e+01  4.6891061425473879e+01  4.6796961661034743e+01  4.6681492333938330e+01  4.6538874781401759e+01  4.6361261763736429e+01  4.6137725913054233e+01  4.5852588943489344e+01  4.5482532077826690e+01  4.4991315142207704e+01  4.4319452479802642e+01  4.3362260626377058e+01  4.1917911256383420e+01  3.9546271802864162e+01  3.5110638878991182e+01  2.4928416749645308e+01  0.0000000000000000e+00  0.0000000000000000e+00  1.4603698378444211e+01  2.4714998691475998e+01  3.0858277587571969e+01  3.4674980345696397e+01  3.7181601583698097e+01  3.8913854845369094e+01  4.0160899622952094e+01  4.1087671849919417e+01  4.1793668152083335e+01  4.2341972751360480e+01  4.2774327635077874e+01  4.3119373854716088e+01  4.3397379664334281e+01  4.3623071355101267e+01  4.3807393041521166e+01  4.3958637432012537e+01  4.4083193981591315e+01  4.4186056935201982e+01  4.4271178450051337e+01  4.4341719247370797e+01  4.4400229954289507e+01  4.4448784606564253e+01  4.4489080516238658e+01  4.4522514086001834e+01  4.4550239149683343e+01  4.4573212430778824e+01  4.4592229372142860e+01  4.4607952673844984e+01  4.4620935240092663e+01  4.4631638788547569e+01  4.4640449056526371e+01  4.4647688308833878e+01  4.4653625684628103e+01  4.4658485797563245e+01  4.4662455911913163e+01  4.4665691948662555e+01  4.4668323523457111e+01  4.4670458178412218e+01  4.4672184938908657e+01  4.4673577302350957e+01  4.4674695746753898e+01  4.4675589831709630e+01  4.4676299951866348e+01  4.4676858792836221e+01  4.4677292530929115e+01  4.4677621810898707e+01  4.4677862529684731e+01  4.4678026448720153e+01  4.4678121652543602e+01  4.4678152867092869e+01  4.4678121647007920e+01  4.4678026437456545e+01  4.4677862512305275e+01  4.4677621786813177e+01  4.4677292499335117e+01  4.4676858752705840e+01  4.4676299901931003e+01  4.4675589770441498e+01  4.4674695672345614e+01  4.4673577212693743e+01  4.4672184831569830e+01  4.4670458050612012e+01  4.4668323372046316e+01  4.4665691770102121e+01  4.4662455702255976e+01  4.4658485552440467e+01  4.4653625399240305e+01  4.4647687977948920e+01  4.4640448674485505e+01  4.4631638349280649e+01  4.4620934737144076e+01  4.4607952100411325e+01  4.4592228721123696e+01  4.4573211694840452e+01  4.4550238321336145e+01  4.4522513157691044e+01  4.4489079480447693e+01  4.4448783455928918e+01  4.4400228681721323e+01  4.4341717846186057e+01  4.4271176914102860e+01  4.4186055259008384e+01  4.4083192160458644e+01  4.3958635462142524e+01  4.3807390920098875e+01  4.3623069080354092e+01  4.3397377235553975e+01  4.3119371272233593e+01  4.2774324900179259e+01  4.2341969866128821e+01  4.1793665119145629e+01  4.1087668672067871e+01  4.0160896302585549e+01  3.8913851383654780e+01  3.7181597979251968e+01  3.4674976592370811e+01  3.0858273670696828e+01  2.4714994583770292e+01  1.4603694064569835e+01  0.0000000000000000e+00  0.0000000000000000e+00  1.0026876950935964e+01  1.8289994199558752e+01  2.4363651557237141e+01  2.8670838406955479e+01  3.1743999222620332e+01  3.3982048051993004e+01  3.5649444672614905e+01  3.6917868938806699e+01  3.7900161231650088e+01  3.8672242127244289e+01  3.9286533452735227e+01  3.9780155543384197e+01  4.0180012695452803e+01  4.0506018346544316e+01  4.0773189543754668e+01  4.0993039308947203e+01  4.1174523095056252e+01  4.1324695688207818e+01  4.1449176066784688e+01  4.1552482336064948e+01  4.1638277120639628e+01  4.1709550171276931e+01  4.1768756232794487e+01  4.1817920547718394e+01  4.1858720612743660e+01  4.1892550274915600e+01  4.1920570525249992e+01  4.1943750149165254e+01  4.1962898551879825e+01  4.1978692479292341e+01  4.1991697925508142e+01  4.2002388206460743e+01  4.2011158950500480e+01  4.2018340587590203e+01  4.2024208792271033e+01  4.2028993240146328e+01  4.2032884964964659e+01  4.2036042547495128e+01  4.2038597323962875e+01  4.2040657767709419e+01  4.2042313170647205e+01  4.2043636729298861e+01  4.2044688122474604e+01  4.2045515653005680e+01  4.2046158013706290e+01  4.2046645727334138e+01  4.2047002301352585e+01  4.2047245130431335e+01  4.2047386172612867e+01  4.2047432418698172e+01  4.2047386168503557e+01  4.2047245122055344e+01  4.2047002288391916e+01  4.2046645709303803e+01  4.2046157989945009e+01  4.2045515622663714e+01  4.2044688084498368e+01  4.2043636682413819e+01  4.2042313113338039e+01  4.2040657698198864e+01  4.2038597240189318e+01  4.2036042447089599e+01  4.2032884845228430e+01  4.2028993098029289e+01  4.2024208624352646e+01  4.2018340390063635e+01  4.2011158719161173e+01  4.2002387936701140e+01  4.1991697612319491e+01  4.1978692117275187e+01  4.1962898135264233e+01  4.1943749671842056e+01  4.1920569980814015e+01  4.1892549656721172e+01  4.1858719913973189e+01  4.1817919761463031e+01  4.1768755352146385e+01  4.1709549189431648e+01  4.1638276031006193e+01  4.1552481132379967e+01  4.1449174743227680e+01  4.1324694239511473e+01  4.1174521516606454e+01  4.0993037596866081e+01  4.0773187694958494e+01  4.0506016358767390e+01  4.0180010567227939e+01  3.9780153273967677e+01  3.9286531041962412e+01  3.8672239575299734e+01  3.7900158538729805e+01  3.6917866104641604e+01  3.5649441695810815e+01  3.3982044929122509e+01  3.1743995946984771e+01  2.8670834966996853e+01  2.4363647935035665e+01  1.8289990371647441e+01  1.0026872893594723e+01  0.0000000000000000e+00  0.0000000000000000e+00  7.5159943724095610e+00  1.4195447417992453e+01  1.9641295442840093e+01  2.3880765014686791e+01  2.7128131703120086e+01  2.9617154554900047e+01  3.1540629945057002e+01  3.3043101942476667e+01  3.4229554797440031e+01  3.5175871595091081e+01  3.5937292786276856e+01  3.6554528168144337e+01  3.7058006142683823e+01  3.7470799325538152e+01  3.7810645414187839e+01  3.8091356346982941e+01  3.8323813113894737e+01  3.8516677645660302e+01  3.8676909382402464e+01  3.8810145321032742e+01  3.8920983405497893e+01  3.9013196596749147e+01  3.9089896594007186e+01  3.9153660532180808e+01  3.9206630125056385e+01  3.9250590061418166e+01  3.9287030601774852e+01  3.9317198010519590e+01  3.9342135521768199e+01  3.9362716862320681e+01  3.9379673864382156e+01  3.9393619340450982e+01  3.9405066126059054e+01  3.9414442996858206e+01  3.9422108016505192e+01  3.9428359757793572e+01  3.9433446752080719e+01  3.9437575454419758e+01  3.9440916958944982e+01  3.9443612657309103e+01  3.9445778999621908e+01  3.9447511490392124e+01  3.9448888029914663e+01  3.9449971693253005e+01  3.9450813023585603e+01  3.9451451903562408e+01  3.9451919056950821e+01  3.9452237222845930e+01  3.9452422035765260e+01  3.9452482636785966e+01  3.9452422033303229e+01  3.9452237217802079e+01  3.9451919049082150e+01  3.9451451892496841e+01  3.9450813008812780e+01  3.9449971674112057e+01  3.9448888005579413e+01  3.9447511459853693e+01  3.9445778961668843e+01  3.9443612610505802e+01  3.9440916901608276e+01  3.9437575384594844e+01  3.9433446667516918e+01  3.9428359655920424e+01  3.9422107894410246e+01  3.9414442851267488e+01  3.9405065953321184e+01  3.9393619136526937e+01  3.9379673624841139e+01  3.9362716582344262e+01  3.9342135196163625e+01  3.9317197633743582e+01  3.9287030167969021e+01  3.9250589564456668e+01  3.9206629558606295e+01  3.9153659889774666e+01  3.9089895869127041e+01  3.9013195782920803e+01  3.8920982496392305e+01  3.8810144310572170e+01  3.8676908264866057e+01  3.8516676415784438e+01  3.8323811766961562e+01  3.8091354878889653e+01  3.7810643821488206e+01  3.7470797605446343e+01  3.7058004293030194e+01  3.6554526187270362e+01  3.5937290672855298e+01  3.5175869347854785e+01  3.4229552414800132e+01  3.3043099422005675e+01  3.1540627282809329e+01  2.9617151744544302e+01  2.7128128734881148e+01  2.3880761874188824e+01  1.9641292110152655e+01  1.4195443867236484e+01  7.5159905706782517e+00  0.0000000000000000e+00  0.0000000000000000e+00  5.9349529245670452e+00  1.1416072183196471e+01  1.6160570335874695e+01  2.0092878830610367e+01  2.3274984264986099e+01  2.5824330125252448e+01  2.7863426277039775e+01  2.9499014275905221e+01  3.0817305291306859e+01  3.1885681525174924e+01  3.2756181858605807e+01  3.3468945063372594e+01  3.4055064369224709e+01  3.4538796551125465e+01  3.4939221911939526e+01  3.5271477890105544e+01  3.5547674370395995e+01  3.5777575316963414e+01  3.5969109752581389e+01  3.6128757987157286e+01  3.6261846235184628e+01  3.6372773510301506e+01  3.6465188060719555e+01  3.6542125884053810e+01  3.6606120486438989e+01  3.6659290633316928e+01  3.6703411097829211e+01  3.6739970150560083e+01  3.6770216613490810e+01  3.6795198624539665e+01  3.6815795758657316e+01  3.6832745778690523e+01  3.6846667009594313e+01  3.6858077118280185e+01  3.6867408920548129e+01  3.6875023713160346e+01  3.6881222533676009e+01  3.6886255676194153e+01  3.6890330732489581e+01  3.6893619381346731e+01  3.6896263111339422e+01  3.6898378031740613e+01  3.6900058901054720e+01  3.6901382481638365e+01  3.6902410311080558e+01  3.6903190965737799e+01  3.6903761878514111e+01  3.6904150761201763e+01  3.6904376671110420e+01  3.6904450752023216e+01  3.6904376670488396e+01  3.6904150759877425e+01  3.6903761876323834e+01  3.6903190962428368e+01  3.6902410306299892e+01  3.6901382474923210e+01  3.6900058891815320e+01  3.6898378019242770e+01  3.6896263094683611e+01  3.6893619359445019e+01  3.6890330704040522e+01  3.6886255639656056e+01  3.6881222487239626e+01  3.6875023654721147e+01  3.6867408847679457e+01  3.6858077028208285e+01  3.6846666899176604e+01  3.6832745644398436e+01  3.6815795596564939e+01  3.6795198430320156e+01  3.6770216382421587e+01  3.6739969877538769e+01  3.6703410777400762e+01  3.6659290259714041e+01  3.6606120053635124e+01  3.6542125385829635e+01  3.6465187490741648e+01  3.6372772862212258e+01  3.6261845502700382e+01  3.6128757164171979e+01  3.5969108833270560e+01  3.5777574295883419e+01  3.5547673242571285e+01  3.5271476651096243e+01  3.4939220557880027e+01  3.4538795078723751e+01  3.4055062775711157e+01  3.3468943346385494e+01  3.2756180016000350e+01  3.1885679554740136e+01  3.0817303190375377e+01  2.9499012040839137e+01  2.7863423902579083e+01  2.5824327603721560e+01  2.3274981585376928e+01  2.0092875977601103e+01  1.6160567288859774e+01  1.1416068915231564e+01  5.9349494005913233e+00  0.0000000000000000e+00  0.0000000000000000e+00  4.8441903569074221e+00  9.4172928776499347e+00  1.3524262383380004e+01  1.7075675339158348e+01  2.0069911893326932e+01  2.2556938253755892e+01  2.4607208985409002e+01  2.6292837801603643e+01  2.7678841700523250e+01  2.8820346913232271e+01  2.9762669955252509e+01  3.0542517478060379e+01  3.1189453649087231e+01  3.1727278312692672e+01  3.2175197793385060e+01  3.2548773852463476e+01  3.2860675289332931e+01  3.3121266996251478e+01  3.3339070068735374e+01  3.3521121534801793e+01  3.3673256615140822e+01  3.3800331360088705e+01  3.3906399354421993e+01  3.3994852918737116e+01  3.4068536732705240e+01  3.4129839907215697e+01  3.4180771101261371e+01  3.4223020202503761e+01  3.4258009279700119e+01  3.4286934903534522e+01  3.4310803469506411e+01  3.4330460804827645e+01  3.4346617072818951e+01  3.4359867782305045e+01  3.4370711550524717e+01  3.4379565144571401e+01  3.4386776229746623e+01  3.4392634176991479e+01  3.4397379220909592e+01  3.4401210211161633e+01  3.4404291160434489e+01  3.4406756759683631e+01  3.4408717004324998e+01  3.4410261052300719e+01  3.4411460415532915e+01  3.4412371569488904e+01  3.4413038050848655e+01  3.4413492100143749e+01  3.4413755894366084e+01  3.4413842403628657e+01  3.4413755895745403e+01  3.4413492102863366e+01  3.4413038054827283e+01  3.4412371574596612e+01  3.4411460421581424e+01  3.4410261059030503e+01  3.4408717011388966e+01  3.4406756766628078e+01  3.4404291166676408e+01  3.4401210215963474e+01  3.4397379223351130e+01  3.4392634175939797e+01  3.4386776223824121e+01  3.4379565132123069e+01  3.4370711529585321e+01  3.4359867750567446e+01  3.4346617027604779e+01  3.4330460743062034e+01  3.4310803387698023e+01  3.4286934797763259e+01  3.4258009145613336e+01  3.4223020035323550e+01  3.4180770895803931e+01  3.4129839657924336e+01  3.4068536433697709e+01  3.3994852563867560e+01  3.3906398937357302e+01  3.3800330874397687e+01  3.3673256054393960e+01  3.3521120892678397e+01  3.3339069339133360e+01  3.3121266173393842e+01  3.2860674367863922e+01  3.2548772827525781e+01  3.2175196660668618e+01  3.1727277068444511e+01  3.1189452290070186e+01  3.0542516001448721e+01  2.9762668358451460e+01  2.8820345193608652e+01  2.7678839855034546e+01  2.6292835826315777e+01  2.4607206874897081e+01  2.2556936000391101e+01  2.0069909486466216e+01  1.7075672764263107e+01  1.3524259621072879e+01  9.4172899026435974e+00  4.8441871366396247e+00  0.0000000000000000e+00  0.0000000000000000e+00  4.0424060807414577e+00  7.9110029870514404e+00  1.1469485091330526e+01  1.4638444433905974e+01  1.7392994379615512e+01  1.9747605684566331e+01  2.1738907833525356e+01  2.3412377045240564e+01  2.4814105335894311e+01  2.5986594415804799e+01  2.6967100614003662e+01  2.7787372308757792e+01  2.8474045729689003e+01  2.9049289307688621e+01  2.9531489879892437e+01  2.9935888135273920e+01  3.0275129912636672e+01  3.0559728425181909e+01  3.0798444750339982e+01  3.0998598120574847e+01  3.1166317989917545e+01  3.1306748722274502e+01  3.1424216114965482e+01  3.1522363319027388e+01  3.1604262242612094e+01  3.1672505283525002e+01  3.1729281228192026e+01  3.1776438349555683e+01  3.1815537101590753e+01  3.1847894310591826e+01  3.1874620374670254e+01  3.1896650679456201e+01  3.1914772200925757e+01  3.1929646080615729e+01  3.1941826812587458e+01  3.1951778566299186e+01  3.1959889078053695e+01  3.1966481470516783e+01  3.1971824300812060e+01  3.1976140089702376e+01  3.1979612544927072e+01  3.1982392658991373e+01  3.1984603834158545e+01  3.1986346163950504e+01  3.1987699980260896e+01  3.1988728757537231e+01  3.1989481449871185e+01  3.1989994322809594e+01  3.1990292328924582e+01  3.1990390064356696e+01  3.1990292332433068e+01  3.1989994329829877e+01  3.1989481460406431e+01  3.1988728771583713e+01  3.1987699997797591e+01  3.1986346184925360e+01  3.1984603858470798e+01  3.1982392686470686e+01  3.1979612575308586e+01  3.1976140122598473e+01  3.1971824335680573e+01  3.1966481506626380e+01  3.1959889114446678e+01  3.1951778601752416e+01  3.1941826845572496e+01  3.1929646109259092e+01  3.1914772222971138e+01  3.1896650692229734e+01  3.1874620375051137e+01  3.1847894294990095e+01  3.1815537065934219e+01  3.1776438289288180e+01  3.1729281138284833e+01  3.1672505158503391e+01  3.1604262076597749e+01  3.1522363105798011e+01  3.1424215848031015e+01  3.1306748394969247e+01  3.1166317595505905e+01  3.0998597652367486e+01  3.0798444201815872e+01  3.0559727790109790e+01  3.0275129185189211e+01  2.9935887310124983e+01  2.9531488952288139e+01  2.9049288273480752e+01  2.8474044585319056e+01  2.7787371051179381e+01  2.6967099240531436e+01  2.5986592923878359e+01  2.4814103722747550e+01  2.3412375307470079e+01  2.1738905966556842e+01  1.9747603682024327e+01  1.7392992232610425e+01  1.4638442130255502e+01  1.1469482614727202e+01  7.9110003161788134e+00  4.0424031883427727e+00  0.0000000000000000e+00  0.0000000000000000e+00  3.4253955529567293e+00  6.7332221638466310e+00  9.8259863891981976e+00  1.2638535405647820e+01  1.5139840422384605e+01  1.7327015234516413e+01  1.9216277001041423e+01  2.0834453983471796e+01  2.2212643835831205e+01  2.3382173994408028e+01  2.4372375522220072e+01  2.5209570980934377e+01  2.5916787197562048e+01  2.6513857722673688e+01  2.7017708170527559e+01  2.7442706589968651e+01  2.7801016740163796e+01  2.8102924763367469e+01  2.8357127792894762e+01  2.8570982433851153e+01  2.8750715550786690e