<?xml version="1.0"?>
<VTKFile type="UnstructuredGrid"  version="0.1"  >
<UnstructuredGrid>
<Piece  NumberOfPoints="10201" NumberOfCells="20000">
<Points>
<DataArray  type="Float64"  NumberOfComponents="3"  format="ascii">0 0 0  0.01 0 0  0.02 0 0  0.03 0 0  0.04 0 0  0.05 0 0  0.06 0 0  0.07000000000000001 0 0  0.08 0 0  0.09 0 0  0.1 0 0  0.11 0 0  0.12 0 0  0.13 0 0  0.14 0 0  0.15 0 0  0.16 0 0  0.17 0 0  0.18 0 0  0.19 0 0  0.2 0 0  0.21 0 0  0.22 0 0  0.23 0 0  0.24 0 0  0.25 0 0  0.26 0 0  0.27 0 0  0.28 0 0  0.29 0 0  0.3 0 0  0.31 0 0  0.32 0 0  0.33 0 0  0.34 0 0  0.35 0 0  0.36 0 0  0.37 0 0  0.38 0 0  0.39 0 0  0.4 0 0  0.41 0 0  0.42 0 0  0.43 0 0  0.44 0 0  0.45 0 0  0.46 0 0  0.47 0 0  0.48 0 0  0.49 0 0  0.5 0 0  0.51 0 0  0.52 0 0  0.53 0 0  0.54 0 0  0.55 0 0  0.5600000000000001 0 0  0.57 0 0  0.58 0 0  0.59 0 0  0.6 0 0  0.61 0 0  0.62 0 0  0.63 0 0  0.64 0 0  0.65 0 0  0.66 0 0  0.67 0 0  0.68 0 0  0.6899999999999999 0 0  0.7 0 0  0.71 0 0  0.72 0 0  0.73 0 0  0.74 0 0  0.75 0 0  0.76 0 0  0.77 0 0  0.78 0 0  0.79 0 0  0.8 0 0  0.8100000000000001 0 0  0.82 0 0  0.83 0 0  0.84 0 0  0.85 0 0  0.86 0 0  0.87 0 0  0.88 0 0  0.89 0 0  0.9 0 0  0.91 0 0  0.92 0 0  0.93 0 0  0.9399999999999999 0 0  0.95 0 0  0.96 0 0  0.97 0 0  0.98 0 0  0.99 0 0  1 0 0  0 0.01 0  0.01 0.01 0  0.02 0.01 0  0.03 0.01 0  0.04 0.01 0  0.05 0.01 0  0.06 0.01 0  0.07000000000000001 0.01 0  0.08 0.01 0  0.09 0.01 0  0.1 0.01 0  0.11 0.01 0  0.12 0.01 0  0.13 0.01 0  0.14 0.01 0  0.15 0.01 0  0.16 0.01 0  0.17 0.01 0  0.18 0.01 0  0.19 0.01 0  0.2 0.01 0  0.21 0.01 0  0.22 0.01 0  0.23 0.01 0  0.24 0.01 0  0.25 0.01 0  0.26 0.01 0  0.27 0.01 0  0.28 0.01 0  0.29 0.01 0  0.3 0.01 0  0.31 0.01 0  0.32 0.01 0  0.33 0.01 0  0.34 0.01 0  0.35 0.01 0  0.36 0.01 0  0.37 0.01 0  0.38 0.01 0  0.39 0.01 0  0.4 0.01 0  0.41 0.01 0  0.42 0.01 0  0.43 0.01 0  0.44 0.01 0  0.45 0.01 0  0.46 0.01 0  0.47 0.01 0  0.48 0.01 0  0.49 0.01 0  0.5 0.01 0  0.51 0.01 0  0.52 0.01 0  0.53 0.01 0  0.54 0.01 0  0.55 0.01 0  0.5600000000000001 0.01 0  0.57 0.01 0  0.58 0.01 0  0.59 0.01 0  0.6 0.01 0  0.61 0.01 0  0.62 0.01 0  0.63 0.01 0  0.64 0.01 0  0.65 0.01 0  0.66 0.01 0  0.67 0.01 0  0.68 0.01 0  0.6899999999999999 0.01 0  0.7 0.01 0  0.71 0.01 0  0.72 0.01 0  0.73 0.01 0  0.74 0.01 0  0.75 0.01 0  0.76 0.01 0  0.77 0.01 0  0.78 0.01 0  0.79 0.01 0  0.8 0.01 0  0.8100000000000001 0.01 0  0.82 0.01 0  0.83 0.01 0  0.84 0.01 0  0.85 0.01 0  0.86 0.01 0  0.87 0.01 0  0.88 0.01 0  0.89 0.01 0  0.9 0.01 0  0.91 0.01 0  0.92 0.01 0  0.93 0.01 0  0.9399999999999999 0.01 0  0.95 0.01 0  0.96 0.01 0  0.97 0.01 0  0.98 0.01 0  0.99 0.01 0  1 0.01 0  0 0.02 0  0.01 0.02 0  0.02 0.02 0  0.03 0.02 0  0.04 0.02 0  0.05 0.02 0  0.06 0.02 0  0.07000000000000001 0.02 0  0.08 0.02 0  0.09 0.02 0  0.1 0.02 0  0.11 0.02 0  0.12 0.02 0  0.13 0.02 0  0.14 0.02 0  0.15 0.02 0  0.16 0.02 0  0.17 0.02 0  0.18 0.02 0  0.19 0.02 0  0.2 0.02 0  0.21 0.02 0  0.22 0.02 0  0.23 0.02 0  0.24 0.02 0  0.25 0.02 0  0.26 0.02 0  0.27 0.02 0  0.28 0.02 0  0.29 0.02 0  0.3 0.02 0  0.31 0.02 0  0.32 0.02 0  0.33 0.02 0  0.34 0.02 0  0.35 0.02 0  0.36 0.02 0  0.37 0.02 0  0.38 0.02 0  0.39 0.02 0  0.4 0.02 0  0.41 0.02 0  0.42 0.02 0  0.43 0.02 0  0.44 0.02 0  0.45 0.02 0  0.46 0.02 0  0.47 0.02 0  0.48 0.02 0  0.49 0.02 0  0.5 0.02 0  0.51 0.02 0  0.52 0.02 0  0.53 0.02 0  0.54 0.02 0  0.55 0.02 0  0.5600000000000001 0.02 0  0.57 0.02 0  0.58 0.02 0  0.59 0.02 0  0.6 0.02 0  0.61 0.02 0  0.62 0.02 0  0.63 0.02 0  0.64 0.02 0  0.65 0.02 0  0.66 0.02 0  0.67 0.02 0  0.68 0.02 0  0.6899999999999999 0.02 0  0.7 0.02 0  0.71 0.02 0  0.72 0.02 0  0.73 0.02 0  0.74 0.02 0  0.75 0.02 0  0.76 0.02 0  0.77 0.02 0  0.78 0.02 0  0.79 0.02 0  0.8 0.02 0  0.8100000000000001 0.02 0  0.82 0.02 0  0.83 0.02 0  0.84 0.02 0  0.85 0.02 0  0.86 0.02 0  0.87 0.02 0  0.88 0.02 0  0.89 0.02 0  0.9 0.02 0  0.91 0.02 0  0.92 0.02 0  0.93 0.02 0  0.9399999999999999 0.02 0  0.95 0.02 0  0.96 0.02 0  0.97 0.02 0  0.98 0.02 0  0.99 0.02 0  1 0.02 0  0 0.03 0  0.01 0.03 0  0.02 0.03 0  0.03 0.03 0  0.04 0.03 0  0.05 0.03 0  0.06 0.03 0  0.07000000000000001 0.03 0  0.08 0.03 0  0.09 0.03 0  0.1 0.03 0  0.11 0.03 0  0.12 0.03 0  0.13 0.03 0  0.14 0.03 0  0.15 0.03 0  0.16 0.03 0  0.17 0.03 0  0.18 0.03 0  0.19 0.03 0  0.2 0.03 0  0.21 0.03 0  0.22 0.03 0  0.23 0.03 0  0.24 0.03 0  0.25 0.03 0  0.26 0.03 0  0.27 0.03 0  0.28 0.03 0  0.29 0.03 0  0.3 0.03 0  0.31 0.03 0  0.32 0.03 0  0.33 0.03 0  0.34 0.03 0  0.35 0.03 0  0.36 0.03 0  0.37 0.03 0  0.38 0.03 0  0.39 0.03 0  0.4 0.03 0  0.41 0.03 0  0.42 0.03 0  0.43 0.03 0  0.44 0.03 0  0.45 0.03 0  0.46 0.03 0  0.47 0.03 0  0.48 0.03 0  0.49 0.03 0  0.5 0.03 0  0.51 0.03 0  0.52 0.03 0  0.53 0.03 0  0.54 0.03 0  0.55 0.03 0  0.5600000000000001 0.03 0  0.57 0.03 0  0.58 0.03 0  0.59 0.03 0  0.6 0.03 0  0.61 0.03 0  0.62 0.03 0  0.63 0.03 0  0.64 0.03 0  0.65 0.03 0  0.66 0.03 0  0.67 0.03 0  0.68 0.03 0  0.6899999999999999 0.03 0  0.7 0.03 0  0.71 0.03 0  0.72 0.03 0  0.73 0.03 0  0.74 0.03 0  0.75 0.03 0  0.76 0.03 0  0.77 0.03 0  0.78 0.03 0  0.79 0.03 0  0.8 0.03 0  0.8100000000000001 0.03 0  0.82 0.03 0  0.83 0.03 0  0.84 0.03 0  0.85 0.03 0  0.86 0.03 0  0.87 0.03 0  0.88 0.03 0  0.89 0.03 0  0.9 0.03 0  0.91 0.03 0  0.92 0.03 0  0.93 0.03 0  0.9399999999999999 0.03 0  0.95 0.03 0  0.96 0.03 0  0.97 0.03 0  0.98 0.03 0  0.99 0.03 0  1 0.03 0  0 0.04 0  0.01 0.04 0  0.02 0.04 0  0.03 0.04 0  0.04 0.04 0  0.05 0.04 0  0.06 0.04 0  0.07000000000000001 0.04 0  0.08 0.04 0  0.09 0.04 0  0.1 0.04 0  0.11 0.04 0  0.12 0.04 0  0.13 0.04 0  0.14 0.04 0  0.15 0.04 0  0.16 0.04 0  0.17 0.04 0  0.18 0.04 0  0.19 0.04 0  0.2 0.04 0  0.21 0.04 0  0.22 0.04 0  0.23 0.04 0  0.24 0.04 0  0.25 0.04 0  0.26 0.04 0  0.27 0.04 0  0.28 0.04 0  0.29 0.04 0  0.3 0.04 0  0.31 0.04 0  0.32 0.04 0  0.33 0.04 0  0.34 0.04 0  0.35 0.04 0  0.36 0.04 0  0.37 0.04 0  0.38 0.04 0  0.39 0.04 0  0.4 0.04 0  0.41 0.04 0  0.42 0.04 0  0.43 0.04 0  0.44 0.04 0  0.45 0.04 0  0.46 0.04 0  0.47 0.04 0  0.48 0.04 0  0.49 0.04 0  0.5 0.04 0  0.51 0.04 0  0.52 0.04 0  0.53 0.04 0  0.54 0.04 0  0.55 0.04 0  0.5600000000000001 0.04 0  0.57 0.04 0  0.58 0.04 0  0.59 0.04 0  0.6 0.04 0  0.61 0.04 0  0.62 0.04 0  0.63 0.04 0  0.64 0.04 0  0.65 0.04 0  0.66 0.04 0  0.67 0.04 0  0.68 0.04 0  0.6899999999999999 0.04 0  0.7 0.04 0  0.71 0.04 0  0.72 0.04 0  0.73 0.04 0  0.74 0.04 0  0.75 0.04 0  0.76 0.04 0  0.77 0.04 0  0.78 0.04 0  0.79 0.04 0  0.8 0.04 0  0.8100000000000001 0.04 0  0.82 0.04 0  0.83 0.04 0  0.84 0.04 0  0.85 0.04 0  0.86 0.04 0  0.87 0.04 0  0.88 0.04 0  0.89 0.04 0  0.9 0.04 0  0.91 0.04 0  0.92 0.04 0  0.93 0.04 0  0.9399999999999999 0.04 0  0.95 0.04 0  0.96 0.04 0  0.97 0.04 0  0.98 0.04 0  0.99 0.04 0  1 0.04 0  0 0.05 0  0.01 0.05 0  0.02 0.05 0  0.03 0.05 0  0.04 0.05 0  0.05 0.05 0  0.06 0.05 0  0.07000000000000001 0.05 0  0.08 0.05 0  0.09 0.05 0  0.1 0.05 0  0.11 0.05 0  0.12 0.05 0  0.13 0.05 0  0.14 0.05 0  0.15 0.05 0  0.16 0.05 0  0.17 0.05 0  0.18 0.05 0  0.19 0.05 0  0.2 0.05 0  0.21 0.05 0  0.22 0.05 0  0.23 0.05 0  0.24 0.05 0  0.25 0.05 0  0.26 0.05 0  0.27 0.05 0  0.28 0.05 0  0.29 0.05 0  0.3 0.05 0  0.31 0.05 0  0.32 0.05 0  0.33 0.05 0  0.34 0.05 0  0.35 0.05 0  0.36 0.05 0  0.37 0.05 0  0.38 0.05 0  0.39 0.05 0  0.4 0.05 0  0.41 0.05 0  0.42 0.05 0  0.43 0.05 0  0.44 0.05 0  0.45 0.05 0  0.46 0.05 0  0.47 0.05 0  0.48 0.05 0  0.49 0.05 0  0.5 0.05 0  0.51 0.05 0  0.52 0.05 0  0.53 0.05 0  0.54 0.05 0  0.55 0.05 0  0.5600000000000001 0.05 0  0.57 0.05 0  0.58 0.05 0  0.59 0.05 0  0.6 0.05 0  0.61 0.05 0  0.62 0.05 0  0.63 0.05 0  0.64 0.05 0  0.65 0.05 0  0.66 0.05 0  0.67 0.05 0  0.68 0.05 0  0.6899999999999999 0.05 0  0.7 0.05 0  0.71 0.05 0  0.72 0.05 0  0.73 0.05 0  0.74 0.05 0  0.75 0.05 0  0.76 0.05 0  0.77 0.05 0  0.78 0.05 0  0.79 0.05 0  0.8 0.05 0  0.8100000000000001 0.05 0  0.82 0.05 0  0.83 0.05 0  0.84 0.05 0  0.85 0.05 0  0.86 0.05 0  0.87 0.05 0  0.88 0.05 0  0.89 0.05 0  0.9 0.05 0  0.91 0.05 0  0.92 0.05 0  0.93 0.05 0  0.9399999999999999 0.05 0  0.95 0.05 0  0.96 0.05 0  0.97 0.05 0  0.98 0.05 0  0.99 0.05 0  1 0.05 0  0 0.06 0  0.01 0.06 0  0.02 0.06 0  0.03 0.06 0  0.04 0.06 0  0.05 0.06 0  0.06 0.06 0  0.07000000000000001 0.06 0  0.08 0.06 0  0.09 0.06 0  0.1 0.06 0  0.11 0.06 0  0.12 0.06 0  0.13 0.06 0  0.14 0.06 0  0.15 0.06 0  0.16 0.06 0  0.17 0.06 0  0.18 0.06 0  0.19 0.06 0  0.2 0.06 0  0.21 0.06 0  0.22 0.06 0  0.23 0.06 0  0.24 0.06 0  0.25 0.06 0  0.26 0.06 0  0.27 0.06 0  0.28 0.06 0  0.29 0.06 0  0.3 0.06 0  0.31 0.06 0  0.32 0.06 0  0.33 0.06 0  0.34 0.06 0  0.35 0.06 0  0.36 0.06 0  0.37 0.06 0  0.38 0.06 0  0.39 0.06 0  0.4 0.06 0  0.41 0.06 0  0.42 0.06 0  0.43 0.06 0  0.44 0.06 0  0.45 0.06 0  0.46 0.06 0  0.47 0.06 0  0.48 0.06 0  0.49 0.06 0  0.5 0.06 0  0.51 0.06 0  0.52 0.06 0  0.53 0.06 0  0.54 0.06 0  0.55 0.06 0  0.5600000000000001 0.06 0  0.57 0.06 0  0.58 0.06 0  0.59 0.06 0  0.6 0.06 0  0.61 0.06 0  0.62 0.06 0  0.63 0.06 0  0.64 0.06 0  0.65 0.06 0  0.66 0.06 0  0.67 0.06 0  0.68 0.06 0  0.6899999999999999 0.06 0  0.7 0.06 0  0.71 0.06 0  0.72 0.06 0  0.73 0.06 0  0.74 0.06 0  0.75 0.06 0  0.76 0.06 0  0.77 0.06 0  0.78 0.06 0  0.79 0.06 0  0.8 0.06 0  0.8100000000000001 0.06 0  0.82 0.06 0  0.83 0.06 0  0.84 0.06 0  0.85 0.06 0  0.86 0.06 0  0.87 0.06 0  0.88 0.06 0  0.89 0.06 0  0.9 0.06 0  0.91 0.06 0  0.92 0.06 0  0.93 0.06 0  0.9399999999999999 0.06 0  0.95 0.06 0  0.96 0.06 0  0.97 0.06 0  0.98 0.06 0  0.99 0.06 0  1 0.06 0  0 0.07000000000000001 0  0.01 0.07000000000000001 0  0.02 0.07000000000000001 0  0.03 0.07000000000000001 0  0.04 0.07000000000000001 0  0.05 0.07000000000000001 0  0.06 0.07000000000000001 0  0.07000000000000001 0.07000000000000001 0  0.08 0.07000000000000001 0  0.09 0.07000000000000001 0  0.1 0.07000000000000001 0  0.11 0.07000000000000001 0  0.12 0.07000000000000001 0  0.13 0.07000000000000001 0  0.14 0.07000000000000001 0  0.15 0.07000000000000001 0  0.16 0.07000000000000001 0  0.17 0.0700
[...]
<PointData  Scalars="f_17"> 
<DataArray  type="Float64"  Name="f_17"  format="ascii">0.0000000000000000e+00  5.0000000000000000e+01  5.0000000000000000e+01  5.0000000000000000e+01  5.0000000000000000e+01  5.0000000000000000e+01  5.0000000000000000e+01  5.0000000000000000e+01  5.0000000000000000e+01  5.0000000000000000e+01  5.0000000000000000e+01  5.0000000000000000e+01  5.0000000000000000e+01  5.0000000000000000e+01  5.0000000000000000e+01  5.0000000000000000e+01  5.0000000000000000e+01  5.0000000000000000e+01  5.0000000000000000e+01  5.0000000000000000e+01  5.0000000000000000e+01  5.0000000000000000e+01  5.0000000000000000e+01  5.0000000000000000e+01  5.0000000000000000e+01  5.0000000000000000e+01  5.0000000000000000e+01  5.0000000000000000e+01  5.0000000000000000e+01  5.0000000000000000e+01  5.0000000000000000e+01  5.0000000000000000e+01  5.0000000000000000e+01  5.0000000000000000e+01  5.0000000000000000e+01  5.0000000000000000e+01  5.0000000000000000e+01  5.0000000000000000e+01  5.0000000000000000e+01  5.0000000000000000e+01  5.0000000000000000e+01  5.0000000000000000e+01  5.0000000000000000e+01  5.0000000000000000e+01  5.0000000000000000e+01  5.0000000000000000e+01  5.0000000000000000e+01  5.0000000000000000e+01  5.0000000000000000e+01  5.0000000000000000e+01  5.0000000000000000e+01  5.0000000000000000e+01  5.0000000000000000e+01  5.0000000000000000e+01  5.0000000000000000e+01  5.0000000000000000e+01  5.0000000000000000e+01  5.0000000000000000e+01  5.0000000000000000e+01  5.0000000000000000e+01  5.0000000000000000e+01  5.0000000000000000e+01  5.0000000000000000e+01  5.0000000000000000e+01  5.0000000000000000e+01  5.0000000000000000e+01  5.0000000000000000e+01  5.0000000000000000e+01  5.0000000000000000e+01  5.0000000000000000e+01  5.0000000000000000e+01  5.0000000000000000e+01  5.0000000000000000e+01  5.0000000000000000e+01  5.0000000000000000e+01  5.0000000000000000e+01  5.0000000000000000e+01  5.0000000000000000e+01  5.0000000000000000e+01  5.0000000000000000e+01  5.0000000000000000e+01  5.0000000000000000e+01  5.0000000000000000e+01  5.0000000000000000e+01  5.0000000000000000e+01  5.0000000000000000e+01  5.0000000000000000e+01  5.0000000000000000e+01  5.0000000000000000e+01  5.0000000000000000e+01  5.0000000000000000e+01  5.0000000000000000e+01  5.0000000000000000e+01  5.0000000000000000e+01  5.0000000000000000e+01  5.0000000000000000e+01  5.0000000000000000e+01  5.0000000000000000e+01  5.0000000000000000e+01  5.0000000000000000e+01  0.0000000000000000e+00  0.0000000000000000e+00  2.4908716661726491e+01  3.5071337659951880e+01  3.9487578966270455e+01  4.1840136471103087e+01  4.3265808763115373e+01  4.4204817098779145e+01  4.4859070680134259e+01  4.5333324961261376e+01  4.5687127867682669e+01  4.5956771536877682e+01  4.6165616075233586e+01  4.6329370383944784e+01  4.6458981890316544e+01  4.6562307713000109e+01  4.6645126780594033e+01  4.6711777323579994e+01  4.6765572216717381e+01  4.6809077705957513e+01  4.6844305413441070e+01  4.6872847731216972e+01  4.6895975326116570e+01  4.6914708708955629e+01  4.6929871681670868e+01  4.6942131879773044e+01  4.6952031961996198e+01  4.6960013908674647e+01  4.6966438163342964e+01  4.6971598859112163e+01  4.6975736031983843e+01  4.6979045486230831e+01  4.6981686809177546e+01  4.6983789912375258e+01  4.6985460388754078e+01  4.6986783911024880e+01  4.6987829848678366e+01  4.6988654244743280e+01  4.6989302265779649e+01  4.6989810217115938e+01  4.6990207198473584e+01  4.6990516461697716e+01  4.6990756521500515e+01  4.6990942061309738e+01  4.6991084669055155e+01  4.6991193431688387e+01  4.6991275412160498e+01  4.6991336028286952e+01  4.6991379349253705e+01  4.6991408322340895e+01  4.6991424939656582e+01  4.6991430352195593e+01  4.6991424936290301e+01  4.6991408315431734e+01  4.6991379338442300e+01  4.6991336013019072e+01  4.6991275391667877e+01  4.6991193404964029e+01  4.6991084634821597e+01  4.6990942017981176e+01  4.6990756467137800e+01  4.6990516393957257e+01  4.6990207114549854e+01  4.6989810113678409e+01  4.6989302138904328e+01  4.6988654089840729e+01  4.6987829660418925e+01  4.6986783683263880e+01  4.6985460114458412e+01  4.6983789583555179e+01  4.6981686416826804e+01  4.6979045020279436e+01  4.6975735481267158e+01  4.6971598211362213e+01  4.6966437405206207e+01  4.6960013025761484e+01  4.6952030938966679e+01  4.6942130700463437e+01  4.6929870329263998e+01  4.6914707166197275e+01  4.6895973575577692e+01  4.6872845755600672e+01  4.6844303195930216e+01  4.6809075230595568e+01  4.6765569468813368e+01  4.6711774290124765e+01  4.6645123450671655e+01  4.6562304078176119e+01  4.6458977944981257e+01  4.6329366125587285e+01  4.6165611504618965e+01  4.5956766658096520e+01  4.5687122688034698e+01  4.5333319490923259e+01  4.4859064931530362e+01  4.4204811085499117e+01  4.3265802498006828e+01  4.1840129962457787e+01  3.9487572208234312e+01  3.5071330599947807e+01  2.4908709050120105e+01  0.0000000000000000e+00  0.0000000000000000e+00  1.4564603530878296e+01  2.4637016903849382e+01  3.0741824009703258e+01  3.4520669084111866e+01  3.6990235635666089e+01  3.8686413137772178e+01  3.9898521507976099e+01  4.0791639480049589e+01  4.1465387202521235e+01  4.1982951985052281e+01  4.2386157814438597e+01  4.2703706495432364e+01  4.2955906101671793e+01  4.3157502553962928e+01  4.3319440530654930e+01  4.3449995683150910e+01  4.3555524488991345e+01  4.3640974183093576e+01  4.3710237887782384e+01  4.3766407327143625e+01  4.3811956226497280e+01  4.3848875814578541e+01  4.3878776587288201e+01  4.3902965878245887e+01  4.3922507787977381e+01  4.3938270044798934e+01  4.3950961039970764e+01  4.3961159371037169e+01  4.3969337597687030e+01  4.3975881472306966e+01  4.3981105592834872e+01  4.3985266198923512e+01  4.3988571667151533e+01  4.3991191138980696e+01  4.3993261623891492e+01  4.3994893850996256e+01  4.3996177089367009e+01  4.3997183116054181e+01  4.3997969478259236e+01  4.3998582170179290e+01  4.3999057824088695e+01  4.3999425498101594e+01  4.3999708128927800e+01  4.3999923706156615e+01  4.4000086214691578e+01  4.4000206383551230e+01  4.4000292272042159e+01  4.4000349718074943e+01  4.4000382667914408e+01  4.4000393401786248e+01  4.4000382665328189e+01  4.4000349712759984e+01  4.4000292263708076e+01  4.4000206371749442e+01  4.4000086198798762e+01  4.3999923685352826e+01  4.3999708102169542e+01  4.3999425464088304e+01  4.3999057781223371e+01  4.3998582116523302e+01  4.3997969411481527e+01  4.3997183033375080e+01  4.3996176987496597e+01  4.3994893726069527e+01  4.3993261471400139e+01  4.3991190953704439e+01  4.3988571443090130e+01  4.3985265929232504e+01  4.3981105269768449e+01  4.3975881087171310e+01  4.3969337140808086e+01  4.3961158831747348e+01  4.3950960406619863e+01  4.3938269304792769e+01  4.3922506927849085e+01  4.3902964883763822e+01  4.3878775443603111e+01  4.3848874506411640e+01  4.3811954738368819e+01  4.3766405643639978e+01  4.3710235993856884e+01  4.3640972064392841e+01  4.3555522132196664e+01  4.3449993076320077e+01  4.3319437663546836e+01  4.3157499418323162e+01  4.2955902691454220e+01  4.2703702806927609e+01  4.2386153846275114e+01  4.1982947738029758e+01  4.1465382679224909e+01  4.0791634684175449e+01  3.9898516443257307e+01  3.8686407806315138e+01  3.6990230035327080e+01  3.4520663204176458e+01  3.0741817823685182e+01  2.4637010361200868e+01  1.4564596594745522e+01  0.0000000000000000e+00  0.0000000000000000e+00  9.9690159130463183e+00  1.8174580450972471e+01  2.4191299199055681e+01  2.8442455846286204e+01  3.1460774299779938e+01  3.3645428875405969e+01  3.5261116694219901e+01  3.6479728894019352e+01  3.7414288635134582e+01  3.8140869056096086e+01  3.8712013362013593e+01  3.9164931846191976e+01  3.9526587802975122e+01  3.9816923805639810e+01  4.0050957834621371e+01  4.0240177777345025e+01  4.0393490397088271e+01  4.0517881025255726e+01  4.0618881388121366e+01  4.0700907590750511e+01  4.0767508551772963e+01  4.0821551567065434e+01  4.0865362982026198e+01  4.0900836293150526e+01  4.0929516255044945e+01  4.0952665051887010e+01  4.0971314875356441e+01  4.0986310063785581e+01  4.0998341125685904e+01  4.1007972381184139e+01  4.1015664531872304e+01  4.1021793162519252e+01  4.1026663952597723e+01  4.1030525208006381e+01  4.1033578197308280e+01  4.1035985680786467e+01  4.1037878946527712e+01  4.1039363609840692e+01  4.1040524386467681e+01  4.1041429013297126e+01  4.1042131460470713e+01  4.1042674554323483e+01  4.1043092110332722e+01  4.1043410658300516e+01  4.1043650827693284e+01  4.1043828448885357e+01  4.1043955415595505e+01  4.1044040344726120e+01  4.1044089061837376e+01  4.1044104933367471e+01  4.1044089060233254e+01  4.1044040341415851e+01  4.1043955410370472e+01  4.1043828441421617e+01  4.1043650817537532e+01  4.1043410644851861e+01  4.1043092092818924e+01  4.1042674531772235e+01  4.1042131431675230e+01  4.1041428976776331e+01  4.1040524340420582e+01  4.1039363552095161e+01  4.1037878874484434e+01  4.1035985591358049e+01  4.1033578086854831e+01  4.1030525072268730e+01  4.1026663786630579e+01  4.1021792960625788e+01  4.1015664287544055e+01  4.1007972087048763e+01  4.0998340773466829e+01  4.0986309644278364e+01  4.0971314378425760e+01  4.0952664466488912e+01  4.0929515569279388e+01  4.0900835494347433e+01  4.0865362056868150e+01  4.0821550501749293e+01  4.0767507332209433e+01  4.0700906202799736e+01  4.0618879817859835e+01  4.0517879259265307e+01  4.0393488422755922e+01  4.0240175583157800e+01  4.0050955410436636e+01  3.9816921142906210e+01  3.9526584894876713e+01  3.9164928687681972e+01  3.8712009949698604e+01  3.8140865387926084e+01  3.7414284709842569e+01  3.6479724710239410e+01  3.5261112249186624e+01  3.3645424163101900e+01  3.1460769308363062e+01  2.8442450554717272e+01  2.4191293573576505e+01  1.8174574445016720e+01  9.9690094740500665e+00  0.0000000000000000e+00  0.0000000000000000e+00  7.4402813393731169e+00  1.4044425030913924e+01  1.9415766683789705e+01  2.3581917705797917e+01  2.6757519076043856e+01  2.9176670209417885e+01  3.1032477893685495e+01  3.2469762556604827e+01  3.3593747557643631e+01  3.4480515600937508e+01  3.5185465998476261e+01  3.5749426339412601e+01  3.6202902345800354e+01  3.6569004911724463e+01  3.6865473137033170e+01  3.7106086272286248e+01  3.7301661809886284e+01  3.7460771016997541e+01  3.7590259380666623e+01  3.7695630639173572e+01  3.7781334147999964e+01  3.7850982814548011e+01  3.7907520485732647e+01  3.7953352042560390e+01  3.7990445617784758e+01  3.8020413707199012e+01  3.8044578101601999e+01  3.8064022268088316e+01  3.8079633885319915e+01  3.8092139573117784e+01  3.8102133374186529e+01  3.8110100191658873e+01  3.8116435123474609e+01  3.8121459437602098e+01  3.8125433782636314e+01  3.8128569113526709e+01  3.8131035722946422e+01  3.8132970698550686e+01  3.8134484070355981e+01  3.8135663867268626e+01  3.8136580264892693e+01  3.8137288976306479e+01  3.8137834012134824e+01  3.8138249914926924e+01  3.8138563554778017e+01  3.8138795557688212e+01  3.8138961424834889e+01  3.8139072389336192e+01  3.8139136046863712e+01  3.8139156787315059e+01  3.8139136046421811e+01  3.8139072388396308e+01  3.8138961423281174e+01  3.8138795555337715e+01  3.8138563551369295e+01  3.8138249910104832e+01  3.8137834005430314e+01  3.8137288967111942e+01  3.8136580252431884e+01  3.8135663850561237e+01  3.8134484048176049e+01  3.8132970669379290e+01  3.8131035684918395e+01  3.8128569064371696e+01  3.8125433719614662e+01  3.8121459357436848e+01  3.8116435022280932e+01  3.8110100064873215e+01  3.8102133216497741e+01  3.8092139378403800e+01  3.8079633646593486e+01  3.8064021977456733e+01  3.8044577750244713e+01  3.8020413285368804e+01  3.7990445114837229e+01  3.7953351447015905e+01  3.7907519785374639e+01  3.7850981996560279e+01  3.7781333199142850e+01  3.7695629545997846e+01  3.7590258129759469e+01  3.7460769595252891e+01  3.7301660204786536e+01  3.7106084472179283e+01  3.6865471131382769e+01  3.6569002691308114e+01  3.6202899902823610e+01  3.5749423667503912e+01  3.5185463092520997e+01  3.4480512456704680e+01  3.3593744171151627e+01  3.2469758923165919e+01  3.1032474006560378e+01  2.9176666058016405e+01  2.6757514643645724e+01  2.3581912966921184e+01  1.9415761601688057e+01  1.4044419555798308e+01  7.4402754053791265e+00  0.0000000000000000e+00  0.0000000000000000e+00  5.8425675075103376e+00  1.1231793856420079e+01  1.5885377984137250e+01  1.9728220506598007e+01  2.2822753525084284e+01  2.5286835530980717e+01  2.7243354909659374e+01  2.8799390256655357e+01  3.0041444405745231e+01  3.1037143114259734e+01  3.1838719160661018e+01  3.2486455171217322e+01  3.3011538908695137e+01  3.3438274095730982e+01  3.3785743029453883e+01  3.4069043577283395e+01  3.4300208478904842e+01  3.4488891414184664e+01  3.4642882701928059e+01  3.4768500380050320e+01  3.4870889665957904e+01  3.4954254560120340e+01  3.5022038749984574e+01  3.5077068266453168e+01  3.5121664992438333e+01  3.5157737726100372e+01  3.5186855779355270e+01  3.5210308847668117e+01  3.5229155981605686e+01  3.5244265826923325e+01  3.5256349809667881e+01  3.5265989577486010e+01  3.5273659733656551e+01  3.5279746691766462e+01  3.5284564318829617e+01  3.5288366910338112e+01  3.5291359943078426e+01  3.5293708973892358e+01  3.5295546990073646e+01  3.5296980466216148e+01  3.5298094340454156e+01  3.5298956088221544e+01  3.5299619042442657e+01  3.5300125084353411e+01  3.5300506808075056e+01  3.5300789243954156e+01  3.5300991209992866e+01  3.5301126346972055e+01  3.5301203880731457e+01  3.5301229144174272e+01  3.5301203881605929e+01  3.5301126348715329e+01  3.5300991212590823e+01  3.5300789247378404e+01  3.5300506812273802e+01  3.5300125089239138e+01  3.5299619047875218e+01  3.5298956093987194e+01  3.5298094346239196e+01  3.5296980471574805e+01  3.5295546994389724e+01  3.5293708976334010e+01  3.5291359942546009e+01  3.5288366905404636e+01  3.5284564307674238e+01  3.5279746672101844e+01  3.5273659702650939e+01  3.5265989531682230e+01  3.5256349744901286e+01  3.5244265738242277e+01  3.5229155863198201e+01  3.5210308692799799e+01  3.5186855580322849e+01  3.5157737474207664e+01  3.5121664677999640e+01  3.5077067878829546e+01  3.5022038277658339e+01  3.4954253990810884e+01  3.4870888986780656e+01  3.4768499577717961e+01  3.4642881762989880e+01  3.4488890325295984e+01  3.4300207227114058e+01  3.4069042150319390e+01  3.3785741415991311e+01  3.3438272285605343e+01  3.3011536893035156e+01  3.2486452942456545e+01  3.1838716712386457e+01  3.1037140440852045e+01  3.0041441501761817e+01  2.8799387115908541e+01  2.7243351523946803e+01  2.5286831888443846e+01  2.2822749608214316e+01  1.9728216289985198e+01  1.5885373432105281e+01  1.1231788920439842e+01  5.8425621224508886e+00  0.0000000000000000e+00  0.0000000000000000e+00  4.7365459200901903e+00  9.2025775312441418e+00  1.3203615393420330e+01  1.6650782041935059e+01  1.9542976186175650e+01  2.1930647139763401e+01  2.3884690155851114e+01  2.5477611408488105e+01  2.6774767594905242e+01  2.7831568699669415e+01  2.8693557237979999e+01  2.9397607651684826e+01  2.9973394519483005e+01  3.0444772727838785e+01  3.0830951326021246e+01  3.1147446414537029e+01  3.1406837380569879e+01  3.1619361104114599e+01  3.1793377552380274e+01  3.1935735148457507e+01  3.2052058662592501e+01  3.2146977326339346e+01  3.2224306736525314e+01  3.2287194877248467e+01  3.2338240108945655e+01  3.2379587099204002e+01  3.2413005261404528e+01  3.2439953210854810e+01  3.2461631955166645e+01  3.2479028938886508e+01  3.2492954611290770e+01  3.2504072843273939e+01  3.2512926256610434e+01  3.2519957326053898e+01  3.2525525956633381e+01  3.2529924113973323e+01  3.2533387986283856e+01  3.2536108076780998e+01  3.2538237560216174e+01  3.2539899183598770e+01  3.2541190946607678e+01  3.2542190759746717e+01  3.2542960246600437e+01  3.2543547829503730e+01  3.2543991214708321e+01  3.2544319373035862e+01  3.2544554094492945e+01  3.2544711179928193e+01  3.2544801319125717e+01  3.2544830692398804e+01  3.2544801321441341e+01  3.2544711184607749e+01  3.2544554101630915e+01  3.2544319382768713e+01  3.2543991227207520e+01  3.2543547844965886e+01  3.2542960265233702e+01  3.2542190781752900e+01  3.2541190972158979e+01  3.2539899212808280e+01  3.2538237593101570e+01  3.2536108113220322e+01  3.2533388025962509e+01  3.2529924156322068e+01  3.2525526000756983e+01  3.2519957370650886e+01  3.2512926299884747e+01  3.2504072882839949e+01  3.2492954644074253e+01  3.2479028961024753e+01  3.2461631961911813e+01  3.2439953196485618e+01  3.2413005219152666e+01  3.2379587021201147e+01  3.2338239986198687e+01  3.2287194699649582e+01  3.2224306492903317e+01  3.2146977004557513e+01  3.2052058249695882e+01  3.1935734630870851e+01  3.1793376916153154e+01  3.1619360335206757e+01  3.1406836465164830e+01  3.1147445339366143e+01  3.0830950078675244e+01  3.0444771297037509e+01  2.9973392895269171e+01  2.9397605825502861e+01  2.8693555202597079e+01  2.7831566448894758e+01  2.6774765123064103e+01  2.5477608709611694e+01  2.3884687222555325e+01  2.1930643961808933e+01  1.9542972748734016e+01  1.6650778323614780e+01  1.3203611364100871e+01  9.2025731496730057e+00  4.7365411310712755e+00  0.0000000000000000e+00  0.0000000000000000e+00  3.9211125606168324e+00  7.6690616113082744e+00  1.1108177866017330e+01  1.4159667895893538e+01  1.6799228683595778e+01  1.9041874758810355e+01  2.0924731708292001e+01  2.2493717647041773e+01  2.3795307179409907e+01  2.4872321709348213e+01  2.5762272323067904e+01  2.6497096696975401e+01  2.7103555821607522e+01  2.7603880599238632e+01  2.8016461468046757e+01  2.8356488256964106e+01  2.8636506683819928e+01  2.8866886363339308e+01  2.9056207456437335e+01  2.9211577297542924e+01  2.9338888790712417e+01  2.9443031256864586e+01  2.9528062805956239e+01  2.9597351682368959e+01  2.9653692583807818e+01  2.9699402740564061e+01  2.9736401558586781e+01  2.9766276848045813e+01  2.9790340044343413e+01  2.9809672347768696e+01  2.9825163332571297e+01  2.9837543282645651e+01  2.9847410280527935e+01  2.9855252894378797e+01  2.9861469162765164e+01  2.9866382460742823e+01  2.9870254736429438e+01  2.9873297529997895e+01  2.9875681123080376e+01  2.9877542113134762e+01  2.9878989662262942e+01  2.9880110631658866e+01  2.9880973780059591e+01  2.9881633176304611e+01  2.9882130951602576e+01  2.9882499495736166e+01  2.9882763182678438e+01  2.9882939694498955e+01  2.9883040997607267e+01  2.9883074011954495e+01  2.9883041001457133e+01  2.9882939702303275e+01  2.9882763194645179e+01  2.9882499512173613e+01  2.9882130972914581e+01  2.9881633202983103e+01  2.9880973812673734e+01  2.9880110670840043e+01  2.9878989708683925e+01  2.9877542167482286e+01  2.9875681186020007e+01  2.9873297602129320e+01  2.9870254818231647e+01  2.9866382552507829e+01  2.9861469264519808e+01  2.9855253005794793e+01  2.9847410400820333e+01  2.9837543410461297e+01  2.9825163465869736e+01  2.9809672483698765e+01  2.9790340179120122e+01  2.9766276976833090e+01  2.9736401675393523e+01  2.9699402838160637e+01  2.9653692653671708e+01  2.9597351714668360e+01  2.9528062789579575e+01  2.9443031179503350e+01  2.9338888639002462e+01  2.9211577057266599e+01  2.9056207112785540e+01  2.8866885901226869e+01  2.8636506088243738e+01  2.8356487513385844e+01  2.8016460562777322e+01  2.7603879519793725e+01  2.7103554556999363e+01  2.6497095237900055e+01  2.5762270661945749e+01  2.4872319840173702e+01  2.3795305097370289e+01  2.2493715347871643e+01  2.0924729187343747e+01  1.9041872009839228e+01  1.6799225697283028e+01  1.4159664658151888e+01  1.1108174356133784e+01  7.6690577999881580e+00  3.9211084080211878e+00  0.0000000000000000e+00  0.0000000000000000e+00  3.2922181762765281e+00  6.4675754910336689e+00  9.4292758735585043e+00  1.2112840258130328e+01  1.4487879776030189e+01  1.6552104530682850e+01  1.8322275803648033e+01  1.9825706634559058e+01  2.1093914517445633e+01  2.2158577854089163e+01  2.3049307551072257e+01  2.3792634306196994e+01  2.4411722370184144e+01  2.4926474451334030e+01  2.5353820785240401e+01  2.5708074320466174e+01  2.6001289676801981e+01  2.6243596141509382e+01  2.6443493015197561e+01  2.6608105027263733e+01  2.6743400053693918e