<?xml version="1.0"?>
<VTKFile type="UnstructuredGrid"  version="0.1"  >
<UnstructuredGrid>
<Piece  NumberOfPoints="10201" NumberOfCells="20000">
<Points>
<DataArray  type="Float64"  NumberOfComponents="3"  format="ascii">0 0 0  0.01 0 0  0.02 0 0  0.03 0 0  0.04 0 0  0.05 0 0  0.06 0 0  0.07000000000000001 0 0  0.08 0 0  0.09 0 0  0.1 0 0  0.11 0 0  0.12 0 0  0.13 0 0  0.14 0 0  0.15 0 0  0.16 0 0  0.17 0 0  0.18 0 0  0.19 0 0  0.2 0 0  0.21 0 0  0.22 0 0  0.23 0 0  0.24 0 0  0.25 0 0  0.26 0 0  0.27 0 0  0.28 0 0  0.29 0 0  0.3 0 0  0.31 0 0  0.32 0 0  0.33 0 0  0.34 0 0  0.35 0 0  0.36 0 0  0.37 0 0  0.38 0 0  0.39 0 0  0.4 0 0  0.41 0 0  0.42 0 0  0.43 0 0  0.44 0 0  0.45 0 0  0.46 0 0  0.47 0 0  0.48 0 0  0.49 0 0  0.5 0 0  0.51 0 0  0.52 0 0  0.53 0 0  0.54 0 0  0.55 0 0  0.5600000000000001 0 0  0.57 0 0  0.58 0 0  0.59 0 0  0.6 0 0  0.61 0 0  0.62 0 0  0.63 0 0  0.64 0 0  0.65 0 0  0.66 0 0  0.67 0 0  0.68 0 0  0.6899999999999999 0 0  0.7 0 0  0.71 0 0  0.72 0 0  0.73 0 0  0.74 0 0  0.75 0 0  0.76 0 0  0.77 0 0  0.78 0 0  0.79 0 0  0.8 0 0  0.8100000000000001 0 0  0.82 0 0  0.83 0 0  0.84 0 0  0.85 0 0  0.86 0 0  0.87 0 0  0.88 0 0  0.89 0 0  0.9 0 0  0.91 0 0  0.92 0 0  0.93 0 0  0.9399999999999999 0 0  0.95 0 0  0.96 0 0  0.97 0 0  0.98 0 0  0.99 0 0  1 0 0  0 0.01 0  0.01 0.01 0  0.02 0.01 0  0.03 0.01 0  0.04 0.01 0  0.05 0.01 0  0.06 0.01 0  0.07000000000000001 0.01 0  0.08 0.01 0  0.09 0.01 0  0.1 0.01 0  0.11 0.01 0  0.12 0.01 0  0.13 0.01 0  0.14 0.01 0  0.15 0.01 0  0.16 0.01 0  0.17 0.01 0  0.18 0.01 0  0.19 0.01 0  0.2 0.01 0  0.21 0.01 0  0.22 0.01 0  0.23 0.01 0  0.24 0.01 0  0.25 0.01 0  0.26 0.01 0  0.27 0.01 0  0.28 0.01 0  0.29 0.01 0  0.3 0.01 0  0.31 0.01 0  0.32 0.01 0  0.33 0.01 0  0.34 0.01 0  0.35 0.01 0  0.36 0.01 0  0.37 0.01 0  0.38 0.01 0  0.39 0.01 0  0.4 0.01 0  0.41 0.01 0  0.42 0.01 0  0.43 0.01 0  0.44 0.01 0  0.45 0.01 0  0.46 0.01 0  0.47 0.01 0  0.48 0.01 0  0.49 0.01 0  0.5 0.01 0  0.51 0.01 0  0.52 0.01 0  0.53 0.01 0  0.54 0.01 0  0.55 0.01 0  0.5600000000000001 0.01 0  0.57 0.01 0  0.58 0.01 0  0.59 0.01 0  0.6 0.01 0  0.61 0.01 0  0.62 0.01 0  0.63 0.01 0  0.64 0.01 0  0.65 0.01 0  0.66 0.01 0  0.67 0.01 0  0.68 0.01 0  0.6899999999999999 0.01 0  0.7 0.01 0  0.71 0.01 0  0.72 0.01 0  0.73 0.01 0  0.74 0.01 0  0.75 0.01 0  0.76 0.01 0  0.77 0.01 0  0.78 0.01 0  0.79 0.01 0  0.8 0.01 0  0.8100000000000001 0.01 0  0.82 0.01 0  0.83 0.01 0  0.84 0.01 0  0.85 0.01 0  0.86 0.01 0  0.87 0.01 0  0.88 0.01 0  0.89 0.01 0  0.9 0.01 0  0.91 0.01 0  0.92 0.01 0  0.93 0.01 0  0.9399999999999999 0.01 0  0.95 0.01 0  0.96 0.01 0  0.97 0.01 0  0.98 0.01 0  0.99 0.01 0  1 0.01 0  0 0.02 0  0.01 0.02 0  0.02 0.02 0  0.03 0.02 0  0.04 0.02 0  0.05 0.02 0  0.06 0.02 0  0.07000000000000001 0.02 0  0.08 0.02 0  0.09 0.02 0  0.1 0.02 0  0.11 0.02 0  0.12 0.02 0  0.13 0.02 0  0.14 0.02 0  0.15 0.02 0  0.16 0.02 0  0.17 0.02 0  0.18 0.02 0  0.19 0.02 0  0.2 0.02 0  0.21 0.02 0  0.22 0.02 0  0.23 0.02 0  0.24 0.02 0  0.25 0.02 0  0.26 0.02 0  0.27 0.02 0  0.28 0.02 0  0.29 0.02 0  0.3 0.02 0  0.31 0.02 0  0.32 0.02 0  0.33 0.02 0  0.34 0.02 0  0.35 0.02 0  0.36 0.02 0  0.37 0.02 0  0.38 0.02 0  0.39 0.02 0  0.4 0.02 0  0.41 0.02 0  0.42 0.02 0  0.43 0.02 0  0.44 0.02 0  0.45 0.02 0  0.46 0.02 0  0.47 0.02 0  0.48 0.02 0  0.49 0.02 0  0.5 0.02 0  0.51 0.02 0  0.52 0.02 0  0.53 0.02 0  0.54 0.02 0  0.55 0.02 0  0.5600000000000001 0.02 0  0.57 0.02 0  0.58 0.02 0  0.59 0.02 0  0.6 0.02 0  0.61 0.02 0  0.62 0.02 0  0.63 0.02 0  0.64 0.02 0  0.65 0.02 0  0.66 0.02 0  0.67 0.02 0  0.68 0.02 0  0.6899999999999999 0.02 0  0.7 0.02 0  0.71 0.02 0  0.72 0.02 0  0.73 0.02 0  0.74 0.02 0  0.75 0.02 0  0.76 0.02 0  0.77 0.02 0  0.78 0.02 0  0.79 0.02 0  0.8 0.02 0  0.8100000000000001 0.02 0  0.82 0.02 0  0.83 0.02 0  0.84 0.02 0  0.85 0.02 0  0.86 0.02 0  0.87 0.02 0  0.88 0.02 0  0.89 0.02 0  0.9 0.02 0  0.91 0.02 0  0.92 0.02 0  0.93 0.02 0  0.9399999999999999 0.02 0  0.95 0.02 0  0.96 0.02 0  0.97 0.02 0  0.98 0.02 0  0.99 0.02 0  1 0.02 0  0 0.03 0  0.01 0.03 0  0.02 0.03 0  0.03 0.03 0  0.04 0.03 0  0.05 0.03 0  0.06 0.03 0  0.07000000000000001 0.03 0  0.08 0.03 0  0.09 0.03 0  0.1 0.03 0  0.11 0.03 0  0.12 0.03 0  0.13 0.03 0  0.14 0.03 0  0.15 0.03 0  0.16 0.03 0  0.17 0.03 0  0.18 0.03 0  0.19 0.03 0  0.2 0.03 0  0.21 0.03 0  0.22 0.03 0  0.23 0.03 0  0.24 0.03 0  0.25 0.03 0  0.26 0.03 0  0.27 0.03 0  0.28 0.03 0  0.29 0.03 0  0.3 0.03 0  0.31 0.03 0  0.32 0.03 0  0.33 0.03 0  0.34 0.03 0  0.35 0.03 0  0.36 0.03 0  0.37 0.03 0  0.38 0.03 0  0.39 0.03 0  0.4 0.03 0  0.41 0.03 0  0.42 0.03 0  0.43 0.03 0  0.44 0.03 0  0.45 0.03 0  0.46 0.03 0  0.47 0.03 0  0.48 0.03 0  0.49 0.03 0  0.5 0.03 0  0.51 0.03 0  0.52 0.03 0  0.53 0.03 0  0.54 0.03 0  0.55 0.03 0  0.5600000000000001 0.03 0  0.57 0.03 0  0.58 0.03 0  0.59 0.03 0  0.6 0.03 0  0.61 0.03 0  0.62 0.03 0  0.63 0.03 0  0.64 0.03 0  0.65 0.03 0  0.66 0.03 0  0.67 0.03 0  0.68 0.03 0  0.6899999999999999 0.03 0  0.7 0.03 0  0.71 0.03 0  0.72 0.03 0  0.73 0.03 0  0.74 0.03 0  0.75 0.03 0  0.76 0.03 0  0.77 0.03 0  0.78 0.03 0  0.79 0.03 0  0.8 0.03 0  0.8100000000000001 0.03 0  0.82 0.03 0  0.83 0.03 0  0.84 0.03 0  0.85 0.03 0  0.86 0.03 0  0.87 0.03 0  0.88 0.03 0  0.89 0.03 0  0.9 0.03 0  0.91 0.03 0  0.92 0.03 0  0.93 0.03 0  0.9399999999999999 0.03 0  0.95 0.03 0  0.96 0.03 0  0.97 0.03 0  0.98 0.03 0  0.99 0.03 0  1 0.03 0  0 0.04 0  0.01 0.04 0  0.02 0.04 0  0.03 0.04 0  0.04 0.04 0  0.05 0.04 0  0.06 0.04 0  0.07000000000000001 0.04 0  0.08 0.04 0  0.09 0.04 0  0.1 0.04 0  0.11 0.04 0  0.12 0.04 0  0.13 0.04 0  0.14 0.04 0  0.15 0.04 0  0.16 0.04 0  0.17 0.04 0  0.18 0.04 0  0.19 0.04 0  0.2 0.04 0  0.21 0.04 0  0.22 0.04 0  0.23 0.04 0  0.24 0.04 0  0.25 0.04 0  0.26 0.04 0  0.27 0.04 0  0.28 0.04 0  0.29 0.04 0  0.3 0.04 0  0.31 0.04 0  0.32 0.04 0  0.33 0.04 0  0.34 0.04 0  0.35 0.04 0  0.36 0.04 0  0.37 0.04 0  0.38 0.04 0  0.39 0.04 0  0.4 0.04 0  0.41 0.04 0  0.42 0.04 0  0.43 0.04 0  0.44 0.04 0  0.45 0.04 0  0.46 0.04 0  0.47 0.04 0  0.48 0.04 0  0.49 0.04 0  0.5 0.04 0  0.51 0.04 0  0.52 0.04 0  0.53 0.04 0  0.54 0.04 0  0.55 0.04 0  0.5600000000000001 0.04 0  0.57 0.04 0  0.58 0.04 0  0.59 0.04 0  0.6 0.04 0  0.61 0.04 0  0.62 0.04 0  0.63 0.04 0  0.64 0.04 0  0.65 0.04 0  0.66 0.04 0  0.67 0.04 0  0.68 0.04 0  0.6899999999999999 0.04 0  0.7 0.04 0  0.71 0.04 0  0.72 0.04 0  0.73 0.04 0  0.74 0.04 0  0.75 0.04 0  0.76 0.04 0  0.77 0.04 0  0.78 0.04 0  0.79 0.04 0  0.8 0.04 0  0.8100000000000001 0.04 0  0.82 0.04 0  0.83 0.04 0  0.84 0.04 0  0.85 0.04 0  0.86 0.04 0  0.87 0.04 0  0.88 0.04 0  0.89 0.04 0  0.9 0.04 0  0.91 0.04 0  0.92 0.04 0  0.93 0.04 0  0.9399999999999999 0.04 0  0.95 0.04 0  0.96 0.04 0  0.97 0.04 0  0.98 0.04 0  0.99 0.04 0  1 0.04 0  0 0.05 0  0.01 0.05 0  0.02 0.05 0  0.03 0.05 0  0.04 0.05 0  0.05 0.05 0  0.06 0.05 0  0.07000000000000001 0.05 0  0.08 0.05 0  0.09 0.05 0  0.1 0.05 0  0.11 0.05 0  0.12 0.05 0  0.13 0.05 0  0.14 0.05 0  0.15 0.05 0  0.16 0.05 0  0.17 0.05 0  0.18 0.05 0  0.19 0.05 0  0.2 0.05 0  0.21 0.05 0  0.22 0.05 0  0.23 0.05 0  0.24 0.05 0  0.25 0.05 0  0.26 0.05 0  0.27 0.05 0  0.28 0.05 0  0.29 0.05 0  0.3 0.05 0  0.31 0.05 0  0.32 0.05 0  0.33 0.05 0  0.34 0.05 0  0.35 0.05 0  0.36 0.05 0  0.37 0.05 0  0.38 0.05 0  0.39 0.05 0  0.4 0.05 0  0.41 0.05 0  0.42 0.05 0  0.43 0.05 0  0.44 0.05 0  0.45 0.05 0  0.46 0.05 0  0.47 0.05 0  0.48 0.05 0  0.49 0.05 0  0.5 0.05 0  0.51 0.05 0  0.52 0.05 0  0.53 0.05 0  0.54 0.05 0  0.55 0.05 0  0.5600000000000001 0.05 0  0.57 0.05 0  0.58 0.05 0  0.59 0.05 0  0.6 0.05 0  0.61 0.05 0  0.62 0.05 0  0.63 0.05 0  0.64 0.05 0  0.65 0.05 0  0.66 0.05 0  0.67 0.05 0  0.68 0.05 0  0.6899999999999999 0.05 0  0.7 0.05 0  0.71 0.05 0  0.72 0.05 0  0.73 0.05 0  0.74 0.05 0  0.75 0.05 0  0.76 0.05 0  0.77 0.05 0  0.78 0.05 0  0.79 0.05 0  0.8 0.05 0  0.8100000000000001 0.05 0  0.82 0.05 0  0.83 0.05 0  0.84 0.05 0  0.85 0.05 0  0.86 0.05 0  0.87 0.05 0  0.88 0.05 0  0.89 0.05 0  0.9 0.05 0  0.91 0.05 0  0.92 0.05 0  0.93 0.05 0  0.9399999999999999 0.05 0  0.95 0.05 0  0.96 0.05 0  0.97 0.05 0  0.98 0.05 0  0.99 0.05 0  1 0.05 0  0 0.06 0  0.01 0.06 0  0.02 0.06 0  0.03 0.06 0  0.04 0.06 0  0.05 0.06 0  0.06 0.06 0  0.07000000000000001 0.06 0  0.08 0.06 0  0.09 0.06 0  0.1 0.06 0  0.11 0.06 0  0.12 0.06 0  0.13 0.06 0  0.14 0.06 0  0.15 0.06 0  0.16 0.06 0  0.17 0.06 0  0.18 0.06 0  0.19 0.06 0  0.2 0.06 0  0.21 0.06 0  0.22 0.06 0  0.23 0.06 0  0.24 0.06 0  0.25 0.06 0  0.26 0.06 0  0.27 0.06 0  0.28 0.06 0  0.29 0.06 0  0.3 0.06 0  0.31 0.06 0  0.32 0.06 0  0.33 0.06 0  0.34 0.06 0  0.35 0.06 0  0.36 0.06 0  0.37 0.06 0  0.38 0.06 0  0.39 0.06 0  0.4 0.06 0  0.41 0.06 0  0.42 0.06 0  0.43 0.06 0  0.44 0.06 0  0.45 0.06 0  0.46 0.06 0  0.47 0.06 0  0.48 0.06 0  0.49 0.06 0  0.5 0.06 0  0.51 0.06 0  0.52 0.06 0  0.53 0.06 0  0.54 0.06 0  0.55 0.06 0  0.5600000000000001 0.06 0  0.57 0.06 0  0.58 0.06 0  0.59 0.06 0  0.6 0.06 0  0.61 0.06 0  0.62 0.06 0  0.63 0.06 0  0.64 0.06 0  0.65 0.06 0  0.66 0.06 0  0.67 0.06 0  0.68 0.06 0  0.6899999999999999 0.06 0  0.7 0.06 0  0.71 0.06 0  0.72 0.06 0  0.73 0.06 0  0.74 0.06 0  0.75 0.06 0  0.76 0.06 0  0.77 0.06 0  0.78 0.06 0  0.79 0.06 0  0.8 0.06 0  0.8100000000000001 0.06 0  0.82 0.06 0  0.83 0.06 0  0.84 0.06 0  0.85 0.06 0  0.86 0.06 0  0.87 0.06 0  0.88 0.06 0  0.89 0.06 0  0.9 0.06 0  0.91 0.06 0  0.92 0.06 0  0.93 0.06 0  0.9399999999999999 0.06 0  0.95 0.06 0  0.96 0.06 0  0.97 0.06 0  0.98 0.06 0  0.99 0.06 0  1 0.06 0  0 0.07000000000000001 0  0.01 0.07000000000000001 0  0.02 0.07000000000000001 0  0.03 0.07000000000000001 0  0.04 0.07000000000000001 0  0.05 0.07000000000000001 0  0.06 0.07000000000000001 0  0.07000000000000001 0.07000000000000001 0  0.08 0.07000000000000001 0  0.09 0.07000000000000001 0  0.1 0.07000000000000001 0  0.11 0.07000000000000001 0  0.12 0.07000000000000001 0  0.13 0.07000000000000001 0  0.14 0.07000000000000001 0  0.15 0.07000000000000001 0  0.16 0.07000000000000001 0  0.17 0.0700
[...]
<PointData  Scalars="f_17"> 
<DataArray  type="Float64"  Name="f_17"  format="ascii">0.0000000000000000e+00  5.0000000000000000e+01  5.0000000000000000e+01  5.0000000000000000e+01  5.0000000000000000e+01  5.0000000000000000e+01  5.0000000000000000e+01  5.0000000000000000e+01  5.0000000000000000e+01  5.0000000000000000e+01  5.0000000000000000e+01  5.0000000000000000e+01  5.0000000000000000e+01  5.0000000000000000e+01  5.0000000000000000e+01  5.0000000000000000e+01  5.0000000000000000e+01  5.0000000000000000e+01  5.0000000000000000e+01  5.0000000000000000e+01  5.0000000000000000e+01  5.0000000000000000e+01  5.0000000000000000e+01  5.0000000000000000e+01  5.0000000000000000e+01  5.0000000000000000e+01  5.0000000000000000e+01  5.0000000000000000e+01  5.0000000000000000e+01  5.0000000000000000e+01  5.0000000000000000e+01  5.0000000000000000e+01  5.0000000000000000e+01  5.0000000000000000e+01  5.0000000000000000e+01  5.0000000000000000e+01  5.0000000000000000e+01  5.0000000000000000e+01  5.0000000000000000e+01  5.0000000000000000e+01  5.0000000000000000e+01  5.0000000000000000e+01  5.0000000000000000e+01  5.0000000000000000e+01  5.0000000000000000e+01  5.0000000000000000e+01  5.0000000000000000e+01  5.0000000000000000e+01  5.0000000000000000e+01  5.0000000000000000e+01  5.0000000000000000e+01  5.0000000000000000e+01  5.0000000000000000e+01  5.0000000000000000e+01  5.0000000000000000e+01  5.0000000000000000e+01  5.0000000000000000e+01  5.0000000000000000e+01  5.0000000000000000e+01  5.0000000000000000e+01  5.0000000000000000e+01  5.0000000000000000e+01  5.0000000000000000e+01  5.0000000000000000e+01  5.0000000000000000e+01  5.0000000000000000e+01  5.0000000000000000e+01  5.0000000000000000e+01  5.0000000000000000e+01  5.0000000000000000e+01  5.0000000000000000e+01  5.0000000000000000e+01  5.0000000000000000e+01  5.0000000000000000e+01  5.0000000000000000e+01  5.0000000000000000e+01  5.0000000000000000e+01  5.0000000000000000e+01  5.0000000000000000e+01  5.0000000000000000e+01  5.0000000000000000e+01  5.0000000000000000e+01  5.0000000000000000e+01  5.0000000000000000e+01  5.0000000000000000e+01  5.0000000000000000e+01  5.0000000000000000e+01  5.0000000000000000e+01  5.0000000000000000e+01  5.0000000000000000e+01  5.0000000000000000e+01  5.0000000000000000e+01  5.0000000000000000e+01  5.0000000000000000e+01  5.0000000000000000e+01  5.0000000000000000e+01  5.0000000000000000e+01  5.0000000000000000e+01  5.0000000000000000e+01  5.0000000000000000e+01  0.0000000000000000e+00  0.0000000000000000e+00  2.4967275653745588e+01  3.5188222411925580e+01  3.9662318958071033e+01  4.2072033941273155e+01  4.3553947879101095e+01  4.4548075906043699e+01  4.5256135504156170e+01  4.5782706919081228e+01  4.6187181112076409e+01  4.6505712830790067e+01  4.6761545280918526e+01  4.6970291450839085e+01  4.7142823937454516e+01  4.7286945824597289e+01  4.7408402165725434e+01  4.7511516530803924e+01  4.7599605140034974e+01  4.7675254167586559e+01  4.7740510159505725e+01  4.7797013726739003e+01  4.7846095283979366e+01  4.7888844832403784e+01  4.7926163640306918e+01  4.7958803074133264e+01  4.7987394161141331e+01  4.8012470368619823e+01  4.8034485351627026e+01  4.8053826922630570e+01  4.8070828151816258e+01  4.8085776265142506e+01  4.8098919835393581e+01  4.8110474637802405e+01  4.8120628451730930e+01  4.8129545023581002e+01  4.8137367356784054e+01  4.8144220457689130e+01  4.8150213638110920e+01  4.8155442453868432e+01  4.8159990342133746e+01  4.8163930007598474e+01  4.8167324597439432e+01  4.8170228697169712e+01  4.8172689173186271e+01  4.8174745882806448e+01  4.8176432268528572e+01  4.8177775849947302e+01  4.8178798624024346e+01  4.8179517382138869e+01  4.8179943950396932e+01  4.8180085358002302e+01  4.8179943936991421e+01  4.8179517355266356e+01  4.8178798583562369e+01  4.8177775795713536e+01  4.8176432200282690e+01  4.8174745800251877e+01  4.8172689075973445e+01  4.8170228584899341e+01  4.8167324469666120e+01  4.8163929863835136e+01  4.8159990181856543e+01  4.8155442276522209e+01  4.8150213443114829e+01  4.8144220244442778e+01  4.8137367124674306e+01  4.8129544771988890e+01  4.8120628180038949e+01  4.8110474345401784e+01  4.8098919521692309e+01  4.8085775929573082e+01  4.8070827793843300e+01  4.8053826541758809e+01  4.8034484947409211e+01  4.8012469940663856e+01  4.7987393709117768e+01  4.7958802597781876e+01  4.7926163139443020e+01  4.7888844306924049e+01  4.7846094733866543e+01  4.7797013152065979e+01  4.7740509560438781e+01  4.7675253544387324e+01  4.7599604493061094e+01  4.7511515860508823e+01  4.7408401472656003e+01  4.7286945109390039e+01  4.7142823200830279e+01  4.6970290693594961e+01  4.6761544503917271e+01  4.6505712034945915e+01  4.6187180298335932e+01  4.5782706088396786e+01  4.5256134657445664e+01  4.4548075044123387e+01  4.3553947002553699e+01  4.2072033050133491e+01  3.9662318050881510e+01  3.5188221482097966e+01  2.4967274671597423e+01  0.0000000000000000e+00  0.0000000000000000e+00  1.4681015362274678e+01  2.4869373349582911e+01  3.1089190554262256e+01  3.4981659596157414e+01  3.7563030720527024e+01  3.9368783884834137e+01  4.0687858088912584e+01  4.1684983932439842e+01  4.2459469653814288e+01  4.3074229519068275e+01  4.3570855155915417e+01  4.3977857687116135e+01  4.4315396371719444e+01  4.4598109616622622e+01  4.4836874627200395e+01  4.5039937749199098e+01  4.5213661924638721e+01  4.5363033799667576e+01  4.5492015705427683e+01  4.5603794997231446e+01  4.5700963948666477e+01  4.5785651707319076e+01  4.5859622551183769e+01  4.5924350060733303e+01  4.5981073816793192e+01  4.6030843243766100e+01  4.6074551875530418e+01  4.6112964401471409e+01  4.6146738210165509e+01  4.6176440696823498e+01  4.6202563278042291e+01  4.6225532824163658e+01  4.6245721048967852e+01  4.6263452270394517e+01  4.6279009861936800e+01  4.6292641643532122e+01  4.6304564406971089e+01  4.6314967729642838e+01  4.6324017198623800e+01  4.6331857142373842e+01  4.6338612947916396e+01  4.6344393026069113e+01  4.6349290475117520e+01  4.6353384483561435e+01  4.6356741504668904e+01  4.6359416229125742e+01  4.6361452376744040e+01  4.6362883323736213e+01  4.6363732578264958e+01  4.6364014113687119e+01  4.6363732565972398e+01  4.6362883299093710e+01  4.6361452339637445e+01  4.6359416179385171e+01  4.6356741442070273e+01  4.6353384407828386e+01  4.6349290385924256e+01  4.6344392923043500e+01  4.6338612830643392e+01  4.6331857010399617e+01  4.6324017051460274e+01  4.6314967566772815e+01  4.6304564227853305e+01  4.6292641447607302e+01  4.6279009648633597e+01  4.6263452039135991e+01  4.6245720799178173e+01  4.6225532555274782e+01  4.6202562989500990e+01  4.6176440388098726e+01  4.6146737880755047e+01  4.6112964050908914e+01  4.6074551503392193e+01  4.6030842849677583e+01  4.5981073400434887e+01  4.5924349621846247e+01  4.5859622089574586e+01  4.5785651222864253e+01  4.5700963441315345e+01  4.5603794467008484e+01  4.5492015152433929e+01  4.5363033224080205e+01  4.5213661326709307e+01  4.5039937129250220e+01  4.4836873985620613e+01  4.4598108953858663e+01  4.4315395688266108e+01  4.3977856983503088e+01  4.3570854432689792e+01  4.3074228776772351e+01  4.2459468892954874e+01  4.1684983153447099e+01  4.0687857292079372e+01  3.9368783070220907e+01  3.7563029887799132e+01  3.4981658744285490e+01  3.1089189680978258e+01  2.4869372450892854e+01  1.4681014438082528e+01  0.0000000000000000e+00  0.0000000000000000e+00  1.0141876843547644e+01  1.8519607562135338e+01  2.4707106372686059e+01  2.9126987090353868e+01  3.2311330919072780e+01  3.4658704663166617e+01  3.6433240310649438e+01  3.7806312447060336e+01  3.8890481361680692e+01  3.9761414922931856e+01  4.0471311365862285e+01  4.1057097790486978e+01  4.1545516363196242e+01  4.1956349761764386e+01  4.2304515443810637e+01  4.2601457376998255e+01  4.2856091461943791e+01  4.3075461046247995e+01  4.3265200089305019e+01  4.3429866148279423e+01  4.3573183620799128e+01  4.3698224054397187e+01  4.3807541621226633e+01  4.3903276182140942e+01  4.3987232602767165e+01  4.4060942449574668e+01  4.4125712459602575e+01  4.4182662973638166e+01  4.4232758675713484e+01  4.4276833378453432e+01  4.4315610158932181e+01  4.4349717832770153e+01  4.4379704520840505e+01  4.4406048889441315e+01  4.4429169514591656e+01  4.4449432722561603e+01  4.4467159183543345e+01  4.4482629477528413e+01  4.4496088806633360e+01  4.4507750993126876e+01  4.4517801874907434e+01  4.4526402188396141e+01  4.4533690011439646e+01  4.4539782824849169e+01  4.4544779239882246e+01  4.4548760429706221e+01  4.4551791295213313e+01  4.4553921389121776e+01  4.4555185616812267e+01  4.4555604727573488e+01  4.4555185605677146e+01  4.4553921366797546e+01  4.4551791261592321e+01  4.4548760384628352e+01  4.4544779183136257e+01  4.4539782756174752e+01  4.4533689930529619e+01  4.4526402094899616e+01  4.4517801768433095e+01  4.4507750873246813e+01  4.4496088672887169e+01  4.4482629329427979e+01  4.4467159020577732e+01  4.4449432544202686e+01  4.4429169320299494e+01  4.4406048678670160e+01  4.4379704293045016e+01  4.4349717587411767e+01  4.4315609895485274e+01  4.4276833096411906e+01  4.4232758374597076e+01  4.4182662652998538e+01  4.4125712119029266e+01  4.4060942088700578e+01  4.3987232221273715e+01  4.3903275779762467e+01  4.3807541197754141e+01  4.3698223609681129e+01  4.3573183154751526e+01  4.3429865660874079e+01  4.3265199580577452e+01  4.3075460516292942e+01  4.2856090910911256e+01  4.2601456805087693e+01  4.2304514851262951e+01  4.1956349148850776e+01  4.1545515730204507e+01  4.1057097137703735e+01  4.0471310693550343e+01  3.9761414231301458e+01  3.8890480650852382e+01  3.7806311717015689e+01  3.6433239561164797e+01  3.4658703893720777e+01  3.2311330128720066e+01  2.9126986277569873e+01  2.4707105535292779e+01  1.8519606697786951e+01  1.0141875951248828e+01  0.0000000000000000e+00  0.0000000000000000e+00  7.6675250508342705e+00  1.4497999403055598e+01  2.0093852352004205e+01  2.4481816009951732e+01  2.7875687664477976e+01  3.0508769161440970e+01  3.2573425266120118e+01  3.4213798063961569e+01  3.5534502943478259e+01  3.6611090154795079e+01  3.7498505620283588e+01  3.8237204550528197e+01  3.8857401690374843e+01  3.9381997278991314e+01  3.9828597658605126e+01  4.0210923601397425e+01  4.0539803764082464e+01  4.0823884754123490e+01  4.1070145472408313e+01  4.1284274599689681e+01  4.1470951160943528e+01  4.1634055574661588e+01  4.1776830226960634e+01  4.1902002960209515e+01  4.2011883005781307e+01  4.2108436222142913e+01  4.2193344633264928e+01  4.2268053942231539e+01  4.2333811750855673e+01  4.2391698533816324e+01  4.2442652917770822e+01  4.2487492448814365e+01  4.2526930758643793e+01  4.2561591834957390e+01  4.2592021946684540e+01  4.2618699656508845e+01  4.2642044262406273e+01  4.2662422939704186e+01  4.2680156800459550e+01  4.2695526044034565e+01  4.2708774338849203e+01  4.2720112548334576e+01  4.2729721892522406e+01  4.2737756619289918e+01  4.2744346245109710e+01  4.2749597413520711e+01  4.2753595409875622e+01  4.2756405362794702e+01  4.2758073155806038e+01  4.2758626066594296e+01  4.2758073145864955e+01  4.2756405342860937e+01  4.2753595379846431e+01  4.2749597373243077e+01  4.2744346194381897e+01  4.2737756557863108e+01  4.2729721820103080e+01  4.2720112464587245e+01  4.2708774243399553e+01  4.2695525936473068e+01  4.2680156680345412e+01  4.2662422806569666e+01  4.2642044115761486e+01  4.2618699495846762e+01  4.2592021771486337e+01  4.2561591644697877e+01  4.2526930552797189e+01  4.2487492226860333e+01  4.2442652679200151e+01  4.2391698278136921e+01  4.2333811477598260e+01  4.2268053650955316e+01  4.2193344323562705e+01  4.2108435893645982e+01  4.2011882658163671e+01  4.1902002593191625e+01  4.1776829840311912e+01  4.1634055168202465e+01  4.1470950734545973e+01  4.1284274153276620e+01  4.1070145005951623e+01  4.0823884267640068e+01  4.0539803257628442e+01  4.0210923075060222e+01  3.9828597112492922e+01  3.9381996713219593e+01  3.8857401105049469e+01  3.8237203945724296e+01  3.7498504996019392e+01  3.6611089510999470e+01  3.5534502279950154e+01  3.4213797380319249e+01  3.2573424561737561e+01  3.0508768435370403e+01  2.7875686915362646e+01  2.4481815235953974e+01  2.0093851550817096e+01  1.4497998572073838e+01  7.6675241872217947e+00  0.0000000000000000e+00  0.0000000000000000e+00  6.1215105430718069e+00  1.1788560512603249e+01  1.6717739430856792e+01  2.0832870644551551e+01  2.4195352517972417e+01  2.6922066201399932e+01  2.9134990663601450e+01  3.0940372961174038e+01  3.2423970458721421e+01  3.3652755819118482e+01  3.4678405454388873e+01  3.5540744750311241e+01  3.6270603851400821e+01  3.6892027184552177e+01  3.7423933128103684e+01  3.7881346602392235e+01  3.8276312719509178e+01  3.8618576181659691e+01  3.8916089530182397e+01  3.9175396231701470e+01  3.9401921827065735e+01  3.9600197117306877e+01  3.9774030734229783e+01  3.9926643713780351e+01  4.0060775310761770e+01  4.0178766868698730e+01  4.0282628808938050e+01  4.0374094531997429e+01  4.0454664094099179e+01  4.0525639836159975e+01  4.0588155633195250e+01  4.0643201050931836e+01  4.0691641409059073e+01  4.0734234532335130e+01  4.0771644803904209e+01  4.0804455006714740e+01  4.0833176339376081e+01  4.0858256915140657e+01  4.0880088991758917e+01  4.0899015131824541e+01  4.0915333454983475e+01  4.0929302112795583e+01  4.0941143092418073e+01  4.0951045435317226e+01  4.0959167940904386e+01  4.0965641411538748e+01  4.0970570484126988e+01  4.0974035084079873e+01  4.0976091529261772e+01  4.0976773304461005e+01  4.0976091520543804e+01  4.0974035066593920e+01  4.0970570457773427e+01  4.0965641376169181e+01  4.0959167896323002e+01  4.0951045381282647e+01  4.0941143028645214e+01  4.0929302038958575e+01  4.0915333370718400e+01  4.0899015036732997e+01  4.0880088885411588e+01  4.0858256797081637e+01  4.0833176209127238e+01  4.0804454863780634e+01  4.0771644647776895e+01  4.0734234362499549e+01  4.0691641224998392e+01  4.0643200852133127e+01  4.0588155419154845e+01  4.0525639606389127e+01  4.0454663848129314e+01  4.0374094269385367e+01  4.0282628529270553e+01  4.0178766571596995e+01  4.0060774995885062e+01  3.9926643380828878e+01  3.9774030382946819e+01  3.9600196747479700e+01  3.9401921438525449e+01  3.9175395824321370e+01  3.8916089103874590e+01  3.8618575736370168e+01  3.8276312255210399e+01  3.7881346119073655e+01  3.7423932625759434e+01  3.6892026663165659e+01  3.6270603310925637e+01  3.5540744190647928e+01  3.4678404875356719e+01  3.3652755220421206e+01  3.2423969839906157e+01  3.0940372321582014e+01  2.9134990002310200e+01  2.6922065517158458e+01  2.4195351809134824e+01  2.0832869909023120e+01  1.6717738666066101e+01  1.1788559715473044e+01  6.1215097098413107e+00  0.0000000000000000e+00  0.0000000000000000e+00  5.0639459163035774e+00  9.8560661272327934e+00  1.4180582926707499e+01  1.7947357398063801e+01  2.1154077648787805e+01  2.3850048270628786e+01  2.6105099149232064e+01  2.7990762083455515e+01  2.9571519972410261e+01  3.0902016963757603e+01  3.2027142804774343e+01  3.2983235064756869e+01  3.3799547952126446e+01  3.4499630995136883e+01  3.5102499483963506e+01  3.5623582239789997e+01  3.6075471271941403e+01  3.6468508214064848e+01  3.6811241233174805e+01  3.7110781072516929e+01  3.7373079241189458e+01  3.7603146297369477e+01  3.7805224014570356e+01  3.7982921953169253e+01  3.8139326449043480e+01  3.8277088124373236e+01  3.8398492584841890e+01  3.8505517880136324e+01  3.8599881483126531e+01  3.8683078920697440e+01  3.8756415715868137e+01  3.8821033939262229e+01  3.8877934390452225e+01  3.8927995215578065e+01  3.8971987601574810e+01  3.9010589057872082e+01  3.9044394694945936e+01  3.9073926829140902e+01  3.9099643179832370e+01  3.9121943874550944e+01  3.9141177437284419e+01  3.9157645902635132e+01  3.9171609172140421e+01  3.9183288707554027e+01  3.9192870638207268e+01  3.9200508344912784e+01  3.9206324570591931e+01  3.9210413097391232e+01  3.9212840021072594e+01  3.9213644645579905e+01  3.9212840013599980e+01  3.9210413082396677e+01  3.9206324547977196e+01  3.9200508314531625e+01  3.9192870599866680e+01  3.9183288661015645e+01  3.9171609117122841e+01  3.9157645838816364e+01  3.9141177364304603e+01  3.9121943792015628e+01  3.9099643087316039e+01  3.9073926726191090e+01  3.9044394581087516e+01  3.9010588932611626e+01  3.8971987464405657e+01  3.8927995065985172e+01  3.8877934227917564e+01  3.8821033763269945e+01  3.8756415525909858e+01  3.8683078716277670e+01  3.8599881263767713e+01  3.8505517645383549e+01  3.8398492334267459e+01  3.8277087857580639e+01  3.8139326165670631e+01  3.7982921652890994e+01  3.7805223697100111e+01  3.7603145962459656e+01  3.7373078888630616e+01  3.7110780702135351e+01  3.6811240844828610e+01  3.6468507807637643e+01  3.6075470847334465e+01  3.5623581796911246e+01  3.5102499022714142e+01  3.4499630515394742e+01  3.3799547453725651e+01  3.2983234547463461e+01  3.2027142268257130e+01  3.0902016407553891e+01  2.9571519395885577e+01  2.7990761485757183e+01  2.6105098529236841e+01  2.3850047626886049e+01  2.1154076979461532e+01  1.7947356700876977e+01  1.4180582198885043e+01  9.8560653654187735e+00  5.0639451164025155e+00  0.0000000000000000e+00  0.0000000000000000e+00  4.2932372998077888e+00  8.4118242100643776e+00  1.2218620648072104e+01  1.5633403361972643e+01  1.8630496981664123e+01  2.1223618146656516e+01  2.3448684255043251e+01  2.5350508103310496e+01  2.6974572700828244e+01  2.8362829951404777e+01  2.9552049338962281e+01  3.0573558063660652e+01  3.1453638487999346e+01  3.2214173087553718e+01  3.2873330254872258e+01  3.3446198403737469e+01  3.3945335064674012e+01  3.4381226139147714e+01  3.4762662755064106e+01  3.5097047370257641e+01  3.5390641213246319e+01  3.5648764022003739e+01  3.5875955406042614e+01  3.6076105499621569e+01  3.6252561090857427e+01  3.6408212161615914e+01  3.6545562753344846e+01  3.6666789257421499e+01  3.6773788581557362e+01  3.6868218134045115e+01  3.6951529167046459e+01  3.7024994705461381e+01  3.7089733040514702e+01  3.7146727572283865e+01  3.7196843631424045e+01  3.7240842788335911e+01  3.7279395060994638e+01  3.7313089355204184e+01  3.7342442408963194e+01  3.7367906462658333e+01  3.7389875836396598e+01  3.7408692562955238e+01  3.7424651198006352e+01  3.7438002907225446e+01  3.7448958911648077e+01  3.7457693357408537e+01  3.7464345663159122e+01  3.7469022387514769e+01  3.7471798649379870e+01  3.7472719125642236e+01  3.7471798643168405e+01  3.7469022375042520e+01  3.7464345644327707e+01  3.7457693332071408e+01  3.7448958879611666e+01  3.7438002868250734e+01  3.7424651151810771e+01  3.7408692509215314e+01  3.7389875774750358e+01  3.7367906392708569e+01  3.7342442330280889e+01  3.7313089267332359e+01  3.7279394963452539e+01  3.7240842680623516e+01  3.7196843513026622e+01  3.7146727442677033e+01  3.7089732899169483e+01  3.7024994551849367e+01  3.6951529000644975e+01  3.6868217954342590e+01  3.6773788388058222e+01  3.6666789049650752e+01  3.6545562530852592e+01  3.6408211923981170e+01  3.6252560837691142e+01  3.6076105230568963e+01  3.5875955120784639e+01  3.5648763720257236e+01  3.5390640894762690e+01  3.5097047034820292e+01  3.4762662402483841e+01  3.4381225769256140e+01  3.3945334677314818e+01  3.3446197998755139e+01  3.2873329832097859e+01  3.2214172646787695e+01  3.1453638028990703e+01  3.0573557586082213e+01  2.9552048842381858e+01  2.8362829435251566e+01  2.6974572164354448e+01  2.5350507545547920e+01  2.3448683674755706e+01  2.1223617542288398e+01  1.8630496351286865e+01  1.5633402703228745e+01  1.2218619958112338e+01  8.4118234854679894e+00  4.2932365364730263e+00  0.0000000000000000e+00  0.0000000000000000e+00  3.7049232120136546e+00  7.2913414398536256e+00  1.0660833304662180e+01  1.3747339020400750e+01  1.6518952321193421e+01  1.8971947966791785e+01  2.1121750752753851e+01  2.2994450619904512e+01  2.4620467335796782e+01  2.6030516204698610e+01  2.7253386097062087e+01  2.8314930335814388e+01  2.9237781299755547e+01  3.0041453561004847e+01  3.0742628792351695e+01  3.1355504661434423e+01  3.1892145673246095e+01  3.2362806556328124e+01  3.2776216845840722e+01  3.3139824723950795e+01  3.3460002678569140e