<?xml version="1.0"?>
<VTKFile type="UnstructuredGrid"  version="0.1"  >
<UnstructuredGrid>
<Piece  NumberOfPoints="10201" NumberOfCells="20000">
<Points>
<DataArray  type="Float64"  NumberOfComponents="3"  format="ascii">0 0 0  0.01 0 0  0.02 0 0  0.03 0 0  0.04 0 0  0.05 0 0  0.06 0 0  0.07000000000000001 0 0  0.08 0 0  0.09 0 0  0.1 0 0  0.11 0 0  0.12 0 0  0.13 0 0  0.14 0 0  0.15 0 0  0.16 0 0  0.17 0 0  0.18 0 0  0.19 0 0  0.2 0 0  0.21 0 0  0.22 0 0  0.23 0 0  0.24 0 0  0.25 0 0  0.26 0 0  0.27 0 0  0.28 0 0  0.29 0 0  0.3 0 0  0.31 0 0  0.32 0 0  0.33 0 0  0.34 0 0  0.35 0 0  0.36 0 0  0.37 0 0  0.38 0 0  0.39 0 0  0.4 0 0  0.41 0 0  0.42 0 0  0.43 0 0  0.44 0 0  0.45 0 0  0.46 0 0  0.47 0 0  0.48 0 0  0.49 0 0  0.5 0 0  0.51 0 0  0.52 0 0  0.53 0 0  0.54 0 0  0.55 0 0  0.5600000000000001 0 0  0.57 0 0  0.58 0 0  0.59 0 0  0.6 0 0  0.61 0 0  0.62 0 0  0.63 0 0  0.64 0 0  0.65 0 0  0.66 0 0  0.67 0 0  0.68 0 0  0.6899999999999999 0 0  0.7 0 0  0.71 0 0  0.72 0 0  0.73 0 0  0.74 0 0  0.75 0 0  0.76 0 0  0.77 0 0  0.78 0 0  0.79 0 0  0.8 0 0  0.8100000000000001 0 0  0.82 0 0  0.83 0 0  0.84 0 0  0.85 0 0  0.86 0 0  0.87 0 0  0.88 0 0  0.89 0 0  0.9 0 0  0.91 0 0  0.92 0 0  0.93 0 0  0.9399999999999999 0 0  0.95 0 0  0.96 0 0  0.97 0 0  0.98 0 0  0.99 0 0  1 0 0  0 0.01 0  0.01 0.01 0  0.02 0.01 0  0.03 0.01 0  0.04 0.01 0  0.05 0.01 0  0.06 0.01 0  0.07000000000000001 0.01 0  0.08 0.01 0  0.09 0.01 0  0.1 0.01 0  0.11 0.01 0  0.12 0.01 0  0.13 0.01 0  0.14 0.01 0  0.15 0.01 0  0.16 0.01 0  0.17 0.01 0  0.18 0.01 0  0.19 0.01 0  0.2 0.01 0  0.21 0.01 0  0.22 0.01 0  0.23 0.01 0  0.24 0.01 0  0.25 0.01 0  0.26 0.01 0  0.27 0.01 0  0.28 0.01 0  0.29 0.01 0  0.3 0.01 0  0.31 0.01 0  0.32 0.01 0  0.33 0.01 0  0.34 0.01 0  0.35 0.01 0  0.36 0.01 0  0.37 0.01 0  0.38 0.01 0  0.39 0.01 0  0.4 0.01 0  0.41 0.01 0  0.42 0.01 0  0.43 0.01 0  0.44 0.01 0  0.45 0.01 0  0.46 0.01 0  0.47 0.01 0  0.48 0.01 0  0.49 0.01 0  0.5 0.01 0  0.51 0.01 0  0.52 0.01 0  0.53 0.01 0  0.54 0.01 0  0.55 0.01 0  0.5600000000000001 0.01 0  0.57 0.01 0  0.58 0.01 0  0.59 0.01 0  0.6 0.01 0  0.61 0.01 0  0.62 0.01 0  0.63 0.01 0  0.64 0.01 0  0.65 0.01 0  0.66 0.01 0  0.67 0.01 0  0.68 0.01 0  0.6899999999999999 0.01 0  0.7 0.01 0  0.71 0.01 0  0.72 0.01 0  0.73 0.01 0  0.74 0.01 0  0.75 0.01 0  0.76 0.01 0  0.77 0.01 0  0.78 0.01 0  0.79 0.01 0  0.8 0.01 0  0.8100000000000001 0.01 0  0.82 0.01 0  0.83 0.01 0  0.84 0.01 0  0.85 0.01 0  0.86 0.01 0  0.87 0.01 0  0.88 0.01 0  0.89 0.01 0  0.9 0.01 0  0.91 0.01 0  0.92 0.01 0  0.93 0.01 0  0.9399999999999999 0.01 0  0.95 0.01 0  0.96 0.01 0  0.97 0.01 0  0.98 0.01 0  0.99 0.01 0  1 0.01 0  0 0.02 0  0.01 0.02 0  0.02 0.02 0  0.03 0.02 0  0.04 0.02 0  0.05 0.02 0  0.06 0.02 0  0.07000000000000001 0.02 0  0.08 0.02 0  0.09 0.02 0  0.1 0.02 0  0.11 0.02 0  0.12 0.02 0  0.13 0.02 0  0.14 0.02 0  0.15 0.02 0  0.16 0.02 0  0.17 0.02 0  0.18 0.02 0  0.19 0.02 0  0.2 0.02 0  0.21 0.02 0  0.22 0.02 0  0.23 0.02 0  0.24 0.02 0  0.25 0.02 0  0.26 0.02 0  0.27 0.02 0  0.28 0.02 0  0.29 0.02 0  0.3 0.02 0  0.31 0.02 0  0.32 0.02 0  0.33 0.02 0  0.34 0.02 0  0.35 0.02 0  0.36 0.02 0  0.37 0.02 0  0.38 0.02 0  0.39 0.02 0  0.4 0.02 0  0.41 0.02 0  0.42 0.02 0  0.43 0.02 0  0.44 0.02 0  0.45 0.02 0  0.46 0.02 0  0.47 0.02 0  0.48 0.02 0  0.49 0.02 0  0.5 0.02 0  0.51 0.02 0  0.52 0.02 0  0.53 0.02 0  0.54 0.02 0  0.55 0.02 0  0.5600000000000001 0.02 0  0.57 0.02 0  0.58 0.02 0  0.59 0.02 0  0.6 0.02 0  0.61 0.02 0  0.62 0.02 0  0.63 0.02 0  0.64 0.02 0  0.65 0.02 0  0.66 0.02 0  0.67 0.02 0  0.68 0.02 0  0.6899999999999999 0.02 0  0.7 0.02 0  0.71 0.02 0  0.72 0.02 0  0.73 0.02 0  0.74 0.02 0  0.75 0.02 0  0.76 0.02 0  0.77 0.02 0  0.78 0.02 0  0.79 0.02 0  0.8 0.02 0  0.8100000000000001 0.02 0  0.82 0.02 0  0.83 0.02 0  0.84 0.02 0  0.85 0.02 0  0.86 0.02 0  0.87 0.02 0  0.88 0.02 0  0.89 0.02 0  0.9 0.02 0  0.91 0.02 0  0.92 0.02 0  0.93 0.02 0  0.9399999999999999 0.02 0  0.95 0.02 0  0.96 0.02 0  0.97 0.02 0  0.98 0.02 0  0.99 0.02 0  1 0.02 0  0 0.03 0  0.01 0.03 0  0.02 0.03 0  0.03 0.03 0  0.04 0.03 0  0.05 0.03 0  0.06 0.03 0  0.07000000000000001 0.03 0  0.08 0.03 0  0.09 0.03 0  0.1 0.03 0  0.11 0.03 0  0.12 0.03 0  0.13 0.03 0  0.14 0.03 0  0.15 0.03 0  0.16 0.03 0  0.17 0.03 0  0.18 0.03 0  0.19 0.03 0  0.2 0.03 0  0.21 0.03 0  0.22 0.03 0  0.23 0.03 0  0.24 0.03 0  0.25 0.03 0  0.26 0.03 0  0.27 0.03 0  0.28 0.03 0  0.29 0.03 0  0.3 0.03 0  0.31 0.03 0  0.32 0.03 0  0.33 0.03 0  0.34 0.03 0  0.35 0.03 0  0.36 0.03 0  0.37 0.03 0  0.38 0.03 0  0.39 0.03 0  0.4 0.03 0  0.41 0.03 0  0.42 0.03 0  0.43 0.03 0  0.44 0.03 0  0.45 0.03 0  0.46 0.03 0  0.47 0.03 0  0.48 0.03 0  0.49 0.03 0  0.5 0.03 0  0.51 0.03 0  0.52 0.03 0  0.53 0.03 0  0.54 0.03 0  0.55 0.03 0  0.5600000000000001 0.03 0  0.57 0.03 0  0.58 0.03 0  0.59 0.03 0  0.6 0.03 0  0.61 0.03 0  0.62 0.03 0  0.63 0.03 0  0.64 0.03 0  0.65 0.03 0  0.66 0.03 0  0.67 0.03 0  0.68 0.03 0  0.6899999999999999 0.03 0  0.7 0.03 0  0.71 0.03 0  0.72 0.03 0  0.73 0.03 0  0.74 0.03 0  0.75 0.03 0  0.76 0.03 0  0.77 0.03 0  0.78 0.03 0  0.79 0.03 0  0.8 0.03 0  0.8100000000000001 0.03 0  0.82 0.03 0  0.83 0.03 0  0.84 0.03 0  0.85 0.03 0  0.86 0.03 0  0.87 0.03 0  0.88 0.03 0  0.89 0.03 0  0.9 0.03 0  0.91 0.03 0  0.92 0.03 0  0.93 0.03 0  0.9399999999999999 0.03 0  0.95 0.03 0  0.96 0.03 0  0.97 0.03 0  0.98 0.03 0  0.99 0.03 0  1 0.03 0  0 0.04 0  0.01 0.04 0  0.02 0.04 0  0.03 0.04 0  0.04 0.04 0  0.05 0.04 0  0.06 0.04 0  0.07000000000000001 0.04 0  0.08 0.04 0  0.09 0.04 0  0.1 0.04 0  0.11 0.04 0  0.12 0.04 0  0.13 0.04 0  0.14 0.04 0  0.15 0.04 0  0.16 0.04 0  0.17 0.04 0  0.18 0.04 0  0.19 0.04 0  0.2 0.04 0  0.21 0.04 0  0.22 0.04 0  0.23 0.04 0  0.24 0.04 0  0.25 0.04 0  0.26 0.04 0  0.27 0.04 0  0.28 0.04 0  0.29 0.04 0  0.3 0.04 0  0.31 0.04 0  0.32 0.04 0  0.33 0.04 0  0.34 0.04 0  0.35 0.04 0  0.36 0.04 0  0.37 0.04 0  0.38 0.04 0  0.39 0.04 0  0.4 0.04 0  0.41 0.04 0  0.42 0.04 0  0.43 0.04 0  0.44 0.04 0  0.45 0.04 0  0.46 0.04 0  0.47 0.04 0  0.48 0.04 0  0.49 0.04 0  0.5 0.04 0  0.51 0.04 0  0.52 0.04 0  0.53 0.04 0  0.54 0.04 0  0.55 0.04 0  0.5600000000000001 0.04 0  0.57 0.04 0  0.58 0.04 0  0.59 0.04 0  0.6 0.04 0  0.61 0.04 0  0.62 0.04 0  0.63 0.04 0  0.64 0.04 0  0.65 0.04 0  0.66 0.04 0  0.67 0.04 0  0.68 0.04 0  0.6899999999999999 0.04 0  0.7 0.04 0  0.71 0.04 0  0.72 0.04 0  0.73 0.04 0  0.74 0.04 0  0.75 0.04 0  0.76 0.04 0  0.77 0.04 0  0.78 0.04 0  0.79 0.04 0  0.8 0.04 0  0.8100000000000001 0.04 0  0.82 0.04 0  0.83 0.04 0  0.84 0.04 0  0.85 0.04 0  0.86 0.04 0  0.87 0.04 0  0.88 0.04 0  0.89 0.04 0  0.9 0.04 0  0.91 0.04 0  0.92 0.04 0  0.93 0.04 0  0.9399999999999999 0.04 0  0.95 0.04 0  0.96 0.04 0  0.97 0.04 0  0.98 0.04 0  0.99 0.04 0  1 0.04 0  0 0.05 0  0.01 0.05 0  0.02 0.05 0  0.03 0.05 0  0.04 0.05 0  0.05 0.05 0  0.06 0.05 0  0.07000000000000001 0.05 0  0.08 0.05 0  0.09 0.05 0  0.1 0.05 0  0.11 0.05 0  0.12 0.05 0  0.13 0.05 0  0.14 0.05 0  0.15 0.05 0  0.16 0.05 0  0.17 0.05 0  0.18 0.05 0  0.19 0.05 0  0.2 0.05 0  0.21 0.05 0  0.22 0.05 0  0.23 0.05 0  0.24 0.05 0  0.25 0.05 0  0.26 0.05 0  0.27 0.05 0  0.28 0.05 0  0.29 0.05 0  0.3 0.05 0  0.31 0.05 0  0.32 0.05 0  0.33 0.05 0  0.34 0.05 0  0.35 0.05 0  0.36 0.05 0  0.37 0.05 0  0.38 0.05 0  0.39 0.05 0  0.4 0.05 0  0.41 0.05 0  0.42 0.05 0  0.43 0.05 0  0.44 0.05 0  0.45 0.05 0  0.46 0.05 0  0.47 0.05 0  0.48 0.05 0  0.49 0.05 0  0.5 0.05 0  0.51 0.05 0  0.52 0.05 0  0.53 0.05 0  0.54 0.05 0  0.55 0.05 0  0.5600000000000001 0.05 0  0.57 0.05 0  0.58 0.05 0  0.59 0.05 0  0.6 0.05 0  0.61 0.05 0  0.62 0.05 0  0.63 0.05 0  0.64 0.05 0  0.65 0.05 0  0.66 0.05 0  0.67 0.05 0  0.68 0.05 0  0.6899999999999999 0.05 0  0.7 0.05 0  0.71 0.05 0  0.72 0.05 0  0.73 0.05 0  0.74 0.05 0  0.75 0.05 0  0.76 0.05 0  0.77 0.05 0  0.78 0.05 0  0.79 0.05 0  0.8 0.05 0  0.8100000000000001 0.05 0  0.82 0.05 0  0.83 0.05 0  0.84 0.05 0  0.85 0.05 0  0.86 0.05 0  0.87 0.05 0  0.88 0.05 0  0.89 0.05 0  0.9 0.05 0  0.91 0.05 0  0.92 0.05 0  0.93 0.05 0  0.9399999999999999 0.05 0  0.95 0.05 0  0.96 0.05 0  0.97 0.05 0  0.98 0.05 0  0.99 0.05 0  1 0.05 0  0 0.06 0  0.01 0.06 0  0.02 0.06 0  0.03 0.06 0  0.04 0.06 0  0.05 0.06 0  0.06 0.06 0  0.07000000000000001 0.06 0  0.08 0.06 0  0.09 0.06 0  0.1 0.06 0  0.11 0.06 0  0.12 0.06 0  0.13 0.06 0  0.14 0.06 0  0.15 0.06 0  0.16 0.06 0  0.17 0.06 0  0.18 0.06 0  0.19 0.06 0  0.2 0.06 0  0.21 0.06 0  0.22 0.06 0  0.23 0.06 0  0.24 0.06 0  0.25 0.06 0  0.26 0.06 0  0.27 0.06 0  0.28 0.06 0  0.29 0.06 0  0.3 0.06 0  0.31 0.06 0  0.32 0.06 0  0.33 0.06 0  0.34 0.06 0  0.35 0.06 0  0.36 0.06 0  0.37 0.06 0  0.38 0.06 0  0.39 0.06 0  0.4 0.06 0  0.41 0.06 0  0.42 0.06 0  0.43 0.06 0  0.44 0.06 0  0.45 0.06 0  0.46 0.06 0  0.47 0.06 0  0.48 0.06 0  0.49 0.06 0  0.5 0.06 0  0.51 0.06 0  0.52 0.06 0  0.53 0.06 0  0.54 0.06 0  0.55 0.06 0  0.5600000000000001 0.06 0  0.57 0.06 0  0.58 0.06 0  0.59 0.06 0  0.6 0.06 0  0.61 0.06 0  0.62 0.06 0  0.63 0.06 0  0.64 0.06 0  0.65 0.06 0  0.66 0.06 0  0.67 0.06 0  0.68 0.06 0  0.6899999999999999 0.06 0  0.7 0.06 0  0.71 0.06 0  0.72 0.06 0  0.73 0.06 0  0.74 0.06 0  0.75 0.06 0  0.76 0.06 0  0.77 0.06 0  0.78 0.06 0  0.79 0.06 0  0.8 0.06 0  0.8100000000000001 0.06 0  0.82 0.06 0  0.83 0.06 0  0.84 0.06 0  0.85 0.06 0  0.86 0.06 0  0.87 0.06 0  0.88 0.06 0  0.89 0.06 0  0.9 0.06 0  0.91 0.06 0  0.92 0.06 0  0.93 0.06 0  0.9399999999999999 0.06 0  0.95 0.06 0  0.96 0.06 0  0.97 0.06 0  0.98 0.06 0  0.99 0.06 0  1 0.06 0  0 0.07000000000000001 0  0.01 0.07000000000000001 0  0.02 0.07000000000000001 0  0.03 0.07000000000000001 0  0.04 0.07000000000000001 0  0.05 0.07000000000000001 0  0.06 0.07000000000000001 0  0.07000000000000001 0.07000000000000001 0  0.08 0.07000000000000001 0  0.09 0.07000000000000001 0  0.1 0.07000000000000001 0  0.11 0.07000000000000001 0  0.12 0.07000000000000001 0  0.13 0.07000000000000001 0  0.14 0.07000000000000001 0  0.15 0.07000000000000001 0  0.16 0.07000000000000001 0  0.17 0.0700
[...]
<PointData  Scalars="f_17"> 
<DataArray  type="Float64"  Name="f_17"  format="ascii">0.0000000000000000e+00  5.0000000000000000e+01  5.0000000000000000e+01  5.0000000000000000e+01  5.0000000000000000e+01  5.0000000000000000e+01  5.0000000000000000e+01  5.0000000000000000e+01  5.0000000000000000e+01  5.0000000000000000e+01  5.0000000000000000e+01  5.0000000000000000e+01  5.0000000000000000e+01  5.0000000000000000e+01  5.0000000000000000e+01  5.0000000000000000e+01  5.0000000000000000e+01  5.0000000000000000e+01  5.0000000000000000e+01  5.0000000000000000e+01  5.0000000000000000e+01  5.0000000000000000e+01  5.0000000000000000e+01  5.0000000000000000e+01  5.0000000000000000e+01  5.0000000000000000e+01  5.0000000000000000e+01  5.0000000000000000e+01  5.0000000000000000e+01  5.0000000000000000e+01  5.0000000000000000e+01  5.0000000000000000e+01  5.0000000000000000e+01  5.0000000000000000e+01  5.0000000000000000e+01  5.0000000000000000e+01  5.0000000000000000e+01  5.0000000000000000e+01  5.0000000000000000e+01  5.0000000000000000e+01  5.0000000000000000e+01  5.0000000000000000e+01  5.0000000000000000e+01  5.0000000000000000e+01  5.0000000000000000e+01  5.0000000000000000e+01  5.0000000000000000e+01  5.0000000000000000e+01  5.0000000000000000e+01  5.0000000000000000e+01  5.0000000000000000e+01  5.0000000000000000e+01  5.0000000000000000e+01  5.0000000000000000e+01  5.0000000000000000e+01  5.0000000000000000e+01  5.0000000000000000e+01  5.0000000000000000e+01  5.0000000000000000e+01  5.0000000000000000e+01  5.0000000000000000e+01  5.0000000000000000e+01  5.0000000000000000e+01  5.0000000000000000e+01  5.0000000000000000e+01  5.0000000000000000e+01  5.0000000000000000e+01  5.0000000000000000e+01  5.0000000000000000e+01  5.0000000000000000e+01  5.0000000000000000e+01  5.0000000000000000e+01  5.0000000000000000e+01  5.0000000000000000e+01  5.0000000000000000e+01  5.0000000000000000e+01  5.0000000000000000e+01  5.0000000000000000e+01  5.0000000000000000e+01  5.0000000000000000e+01  5.0000000000000000e+01  5.0000000000000000e+01  5.0000000000000000e+01  5.0000000000000000e+01  5.0000000000000000e+01  5.0000000000000000e+01  5.0000000000000000e+01  5.0000000000000000e+01  5.0000000000000000e+01  5.0000000000000000e+01  5.0000000000000000e+01  5.0000000000000000e+01  5.0000000000000000e+01  5.0000000000000000e+01  5.0000000000000000e+01  5.0000000000000000e+01  5.0000000000000000e+01  5.0000000000000000e+01  5.0000000000000000e+01  5.0000000000000000e+01  0.0000000000000000e+00  0.0000000000000000e+00  2.4943631634021290e+01  3.5141001238621506e+01  3.9591655837447902e+01  4.1978130131084470e+01  4.3437068918624995e+01  4.4408549278851126e+01  4.5094347781291056e+01  4.5599100428162373e+01  4.5982250182686975e+01  4.6279999671606603e+01  4.6515635548199597e+01  4.6704809570891307e+01  4.6858428247444650e+01  4.6984323596584595e+01  4.7088264578078750e+01  4.7174593649314986e+01  4.7246640968132255e+01  4.7307001821215202e+01  4.7357727217598914e+01  4.7400457802917074e+01  4.7436519859325237e+01  4.7466995383039794e+01  4.7492774087193389e+01  4.7514592576173158e+01  4.7533064266447532e+01  4.7548702532810886e+01  4.7561938826369911e+01  4.7573137012443347e+01  4.7582604832448254e+01  4.7590603152722792e+01  4.7597353492016012e+01  4.7603044196310961e+01  4.7607835540188113e+01  4.7611863968225045e+01  4.7615245641181431e+01  4.7618079415226312e+01  4.7620449354893594e+01  4.7622426859451252e+01  4.7624072466229890e+01  4.7625437381942156e+01  4.7626564783245136e+01  4.7627490920067608e+01  4.7628246049063002e+01  4.7628855219573843e+01  4.7629338930432283e+01  4.7629713672551659e+01  4.7629992369431264e+01  4.7630184725265984e+01  4.7630297488231498e+01  4.7630334634620652e+01  4.7630297477776381e+01  4.7630184704146608e+01  4.7629992337228487e+01  4.7629713628634519e+01  4.7629338873955675e+01  4.7628855149475470e+01  4.7628245964059879e+01  4.7627490818652902e+01  4.7626564663684860e+01  4.7625437242272888e+01  4.7624072304257034e+01  4.7622426672749434e+01  4.7620449140808262e+01  4.7618079170878509e+01  4.7615245363474656e+01  4.7611863653856204e+01  4.7607835185661955e+01  4.7603043797958371e+01  4.7597353046017339e+01  4.7590602655135910e+01  4.7582604279240854e+01  4.7573136399530924e+01  4.7561938149658246e+01  4.7548701788243243e+01  4.7533063450055785e+01  4.7514591684132597e+01  4.7492773115880631e+01  4.7466994329092202e+01  4.7436518719701013e+01  4.7400456574954774e+01  4.7357725899075341e+01  4.7307000410399141e+01  4.7246639463832814e+01  4.7174592050922804e+01  4.7088262885597807e+01  4.6984321810652311e+01  4.6858426369338851e+01  4.6704807602520169e+01  4.6515633492072588e+01  4.6279997530781543e+01  4.5982247960687296e+01  4.5599098128854052e+01  4.5094345408698103e+01  4.4408546836862904e+01  4.3437066410473143e+01  4.1978127558214972e+01  3.9591653196403257e+01  3.5140998509636141e+01  2.4943628726179796e+01  0.0000000000000000e+00  0.0000000000000000e+00  1.4633929781370492e+01  2.4775336432856129e+01  3.0948471442418448e+01  3.4794658990856064e+01  3.7330277319263949e+01  3.9090929721412863e+01  4.0365672845085626e+01  4.1319348306830157e+01  4.2051367887558818e+01  4.2624741188378188e+01  4.3081146350175004e+01  4.3449171697138119e+01  4.3749044016272990e+01  4.3995459336361087e+01  4.4199342473706722e+01  4.4368977393181297e+01  4.4510754801526460e+01  4.4629679503222299e+01  4.4729722730747135e+01  4.4814071924003180e+01  4.4885311144009151e+01  4.4945553615364148e+01  4.4996540624002272e+01  4.5039716372602214e+01  4.5076285391401342e+01  4.5107257112034716e+01  4.5133480870483019e+01  4.5155673686224297e+01  4.5174442525763347e+01  4.5190302308428770e+01  4.5203690590971327e+01  4.5214979635480866e+01  4.5224486395803801e+01  4.5232480832813835e+01  4.5239192875990177e+01  4.5244818279002530e+01  4.5249523564172165e+01  4.5253450210329909e+01  4.5256718207517096e+01  4.5259429077836259e+01  4.5261668442845959e+01  4.5263508202928357e+01  4.5265008382099623e+01  4.5266218682067390e+01  4.5267179781428091e+01  4.5267924409328195e+01  4.5268478217376959e+01  4.5268860468845617e+01  4.5269084560027856e+01  4.5269158384921923e+01  4.5269084550992623e+01  4.5268860450588221e+01  4.5268478189522860e+01  4.5267924371313377e+01  4.5267179732496800e+01  4.5266218621268798e+01  4.5265008308284884e+01  4.5263508114747005e+01  4.5261668338742581e+01  4.5259428956047884e+01  4.5256718066071429e+01  4.5253450047045142e+01  4.5249523376657848e+01  4.5244818064663576e+01  4.5239192632032712e+01  4.5232480556254870e+01  4.5224486083483725e+01  4.5214979284080165e+01  4.5203690197031300e+01  4.5190301868376672e+01  4.5174442035941816e+01  4.5155673142925259e+01  4.5133480269986130e+01  4.5107256450649494e+01  4.5076284665512901e+01  4.5039715578719544e+01  4.4996539758809377e+01  4.4945552675770998e+01  4.4885310127203205e+01  4.4814070827498597e+01  4.4729721552431016e+01  4.4629678241395673e+01  4.4510753454937614e+01  4.4368975961050204e+01  4.4199340955737782e+01  4.3995457732740675e+01  4.3749042327650052e+01  4.3449169924583423e+01  4.3081144495114643e+01  4.2624739252494749e+01  4.2051365872650663e+01  4.1319346214613596e+01  4.0365670676910781e+01  3.9090927477838385e+01  3.7330274999376222e+01  3.4794656591097407e+01  3.0948468954553036e+01  2.4775333841883285e+01  1.4633927081349572e+01  0.0000000000000000e+00  0.0000000000000000e+00  1.0071753673670383e+01  1.8379561586551397e+01  2.4497538287740170e+01  2.8848493457725368e+01  3.1964698866195416e+01  3.4244904946932117e+01  3.5953418850372699e+01  3.7261780454747246e+01  3.8282704217270862e+01  3.9091999958356375e+01  3.9741994734376178e+01  4.0269730606688903e+01  4.0702050304370637e+01  4.1058822322692968e+01  4.1355035035116025e+01  4.1602188451603283e+01  4.1809239845638224e+01  4.1983259636994411e+01  4.2129895076188539e+01  4.2253703885347939e+01  4.2358398273913103e+01  4.2447026121078750e+01  4.2522107404830663e+01  4.2585738282908487e+01  4.2639671469881151e+01  4.2685379020589117e+01  4.2724101896893586e+01  4.2756889492096072e+01  4.2784631441985375e+01  4.2808083449813260e+01  4.2827888419408971e+01  4.2844593875554907e+01  4.2858666419219858e+01  4.2870503793528258e+01  4.2880445007852437e+01  4.2888778870459262e+01  4.2895751206380737e+01  4.2901570980613457e+01  4.2906415503020227e+01  4.2910434857223656e+01  4.2913755668977394e+01  4.2916484308235198e+01  4.2918709602086203e+01  4.2920505121902977e+01  4.2921931096703496e+01  4.2923035995281452e+01  4.2923857811674814e+01  4.2924425081666840e+01  4.2924757651988564e+01  4.2924867218488785e+01  4.2924757644590152e+01  4.2924425066705503e+01  4.2923857788820733e+01  4.2923035964037588e+01  4.2921931056402784e+01  4.2920505071705414e+01  4.2918709540974788e+01  4.2916484235012291e+01  4.2913755582260663e+01  4.2910434755442765e+01  4.2906415384414260e+01  4.2901570843229322e+01  4.2895751048073414e+01  4.2888778688893751e+01  4.2880444800508627e+01  4.2870503557708133e+01  4.2858666152058348e+01  4.2844593574034057e+01  4.2827888080376233e+01  4.2808083070003555e+01  4.2784631018047712e+01  4.2756889020623909e+01  4.2724101374459416e+01  4.2685378443782511e+01  4.2639670835350088e+01  4.2585737587403038e+01  4.2522106645247767e+01  4.2447025294507945e+01  4.2358397377680760e+01  4.2253702917058916e+01  4.2129894033763890e+01  4.1983258518702094e+01  4.1809238650115340e+01  4.1602187177867286e+01  4.1355033682561960e+01  4.1058820891073324e+01  4.0702048793755125e+01  4.0269729017399044e+01  3.9741993066889520e+01  3.9091998213173447e+01  3.8282702394734613e+01  3.7261778554799911e+01  3.5953416872227592e+01  3.4244902888626598e+01  3.1964696723983717e+01  2.8848491225312387e+01  2.4497535955643773e+01  1.8379559142993305e+01  1.0071751108356542e+01  0.0000000000000000e+00  0.0000000000000000e+00  7.5749626721209982e+00  1.4313139337632341e+01  1.9817223286726705e+01  2.4114205061368025e+01  2.7418133391292180e+01  2.9962552416994185e+01  3.1940058031437502e+01  3.3495010430690719e+01  3.4732228441451866e+01  3.5727449640190727e+01  3.6535789956997206e+01  3.7197856329201436e+01  3.7743996236416656e+01  3.8197223202941991e+01  3.8575237199459096e+01  3.8891833006291634e+01  3.9157893936444658e+01  3.9382102387413120e+01  3.9571454868497185e+01  3.9731640350300260e+01  3.9867321847990866e+01  3.9982348621452793e+01  4.0079918007601258e+01  4.0162700249833328e+01  4.0232935829908364e+01  4.0292512140070990e+01  4.0343024468344353e+01  4.0385824951527695e+01  4.0422062208352408e+01  4.0452713685177265e+01  4.0478612250888119e+01  4.0500468213009441e+01  4.0518887656440043e+01  4.0534387803766187e+01  4.0547409943417399e+01  4.0558330355899571e+01  4.0567469579497541e+01  4.0575100288310473e+01  4.0581454002214265e+01  4.0586726806618138e+01  4.0591084226913615e+01  4.0594665376236613e+01  4.0597586474001631e+01  4.0599943815442018e+01  4.0601816258188315e+01  4.0603267280050922e+01  4.0604346652092701e+01  4.0605091762377469e+01  4.0605528618115486e+01  4.0605672547043596e+01  4.0605528612549449e+01  4.0605091751103167e+01  4.0604346634824701e+01  4.0603267256358322e+01  4.0601816227491732e+01  4.0599943777009848e+01  4.0597586426945639e+01  4.0594665319506916e+01  4.0591084159293914e+01  4.0586726726721110e+01  4.0581453908477471e+01  4.0575100178993239e+01  4.0567469452679340e+01  4.0558330209480197e+01  4.0547409775119419e+01  4.0534387611140012e+01  4.0518887436872163e+01  4.0500467963734138e+01  4.0478611969002898e+01  4.0452713367662248e+01  4.0422061852093769e+01  4.0385824553345230e+01  4.0343024025022771e+01  4.0292511648394843e+01  4.0232935286699977e+01  4.0162699651992938e+01  4.0079917352148335e+01  3.9982347905567330e+01  3.9867321069053517e+01  3.9731639505929117e+01  3.9571453956579418e+01  3.9382101406129522e+01  3.9157892884284259e+01  3.8891831882053722e+01  3.8575236002239940e+01  3.8197221932102394e+01  3.7743994891526846e+01  3.7197854909958792e+01  3.6535788463111018e+01  3.5727448071227840e+01  3.4732226796634272e+01  3.3495008708634501e+01  3.1940056229820254e+01  2.9962550532139797e+01  2.7418131417677703e+01  2.4114202991115132e+01  1.9817221109269852e+01  1.4313137039784028e+01  7.5749602377554144e+00  0.0000000000000000e+00  0.0000000000000000e+00  6.0072928940395345e+00  1.1560451897404832e+01  1.6376391857963341e+01  2.0379254838280669e+01  2.3630749306117316e+01  2.6248055240472887e+01  2.8353436674643799e+01  3.0053409684832122e+01  3.1433982569544046e+01  3.2562359065155619e+01  3.3490425308672954e+01  3.4258193875379064e+01  3.4896658686534593e+01  3.5430003967912455e+01  3.5877263662582266e+01  3.6253554065155122e+01  3.6570987801285412e+01  3.6839353823420076e+01  3.7066626502594545e+01  3.7259349777348362e+01  3.7422929557624478e+01  3.7561858328461582e+01  3.7679889270787918e+01  3.7780172486996705e+01  3.7865362539922153e+01  3.7937704090182997e+01  3.7999100668802733e+01  3.8051170353038636e+01  3.8095291185734574e+01  3.8132638495567569e+01  3.8164215769140903e+01  3.8190880347691582e+01  3.8213364936798349e+01  3.8232295702176366e+01  3.8248207560556494e+01  3.8261557148766911e+01  3.8272733856925825e+01  3.8282069236080112e+01  3.8289845031461510e+01  3.8296300045871355e+01  3.8301636000610436e+01  3.8306022531622013e+01  3.8309601434424330e+01  3.8312490251684537e+01  3.8314785280936889e+01  3.8316564066209530e+01  3.8317887425598023e+01  3.8318801056645228e+01  3.8319336752385269e+01  3.8319513252784589e+01  3.8319336748823758e+01  3.8318801049401912e+01  3.8317887414431119e+01  3.8316564050753122e+01  3.8314785260697285e+01  3.8312490226035777e+01  3.8309601402602368e+01  3.8306022492718881e+01  3.8301635953567775e+01  3.8296299989474058e+01  3.8289844964331756e+01  3.8282069156672158e+01  3.8272733763522048e+01  3.8261557039475548e+01  3.8248207433311364e+01  3.8232295554739331e+01  3.8213364766764634e+01  3.8190880152498735e+01  3.8164215546081273e+01  3.8132638241805026e+01  3.8095290898325167e+01  3.8051170028955617e+01  3.7999100304965260e+01  3.7937703683488976e+01  3.7865362087283913e+01  3.7780171985379120e+01  3.7679888717247771e+01  3.7561857720187241e+01  3.7422928891973825e+01  3.7259349051883525e+01  3.7066625715111130e+01  3.6839352971968680e+01  3.6570986884182631e+01  3.6253553080981213e+01  3.5877262610162127e+01  3.5430002846276679e+01  3.4896657494856164e+01  3.4258192612882006e+01  3.3490423974507472e+01  3.2562357658234305e+01  3.1433981088333162e+01  3.0053408127090975e+01  2.8353435037107499e+01  2.6248053518478326e+01  2.3630747493186178e+01  2.0379252925696303e+01  1.6376389834384995e+01  1.1560449748448351e+01  6.0072906014085268e+00  0.0000000000000000e+00  0.0000000000000000e+00  4.9290309745600842e+00  9.5866220636198651e+00  1.3777379372244857e+01  1.7411540203431642e+01  2.0487158725296382e+01  2.3053892290657252e+01  2.5181907309884231e+01  2.6943053179435026e+01  2.8402109060998239e+01  2.9613991935576131e+01  3.0623839198196801e+01  3.1468209479027557e+01  3.2176550424320084e+01  3.2772576709058001e+01  3.3275440175172292e+01  3.3700677650531652e+01  3.4060960993384008e+01  3.4366684231578212e+01  3.4626421464170662e+01  3.4847284156456254e+01  3.5035200808622250e+01  3.5195136910202457e+01  3.5331268934045184e+01  3.5447122856124267e+01  3.5545685177720564e+01  3.5629492521035104e+01  3.5700704430410298e+01  3.5761162926478079e+01  3.5812441541920798e+01  3.5855885948330084e+01  3.5892647813718959e+01  3.5923713172181408e+01  3.5949926313167857e+01  3.5972009987153314e+01  3.5990582561681315e+01  3.6006172635339851e+01  3.6019231518511418e+01  3.6030143912222215e+01  3.6039237055168591e+01  3.6046788560281193e+01  3.6053033123143130e+01  3.6058168253024938e+01  3.6062359151559704e+01  3.6065742842850064e+01  3.6068431641081787e+01  3.6070516026725613e+01  3.6072066989526000e+01  3.6073137885225478e+01  3.6073765842959915e+01  3.6073972751180527e+01  3.6073765841550035e+01  3.6073137882306938e+01  3.6072066984899678e+01  3.6070516020089016e+01  3.6068431632024520e+01  3.6065742830848038e+01  3.6062359135968435e+01  3.6058168233071733e+01  3.6053033097918856e+01  3.6046788528731767e+01  3.6039237016086453e+01  3.6030143864238973e+01  3.6019231460090786e+01  3.6006172564772498e+01  3.5990582477081645e+01  3.5972009886458750e+01  3.5949926194141135e+01  3.5923713032416487e+01  3.5892647650650510e+01  3.5855885759247620e+01  3.5812441323986853e+01  3.5761162676750935e+01  3.5700704145871256e+01  3.5629492198619623e+01  3.5545684814353187e+01  3.5447122448756083e+01  3.5331268479693307e+01  3.5195136405989686e+01  3.5035200251815745e+01  3.4847283544502730e+01  3.4626420794726613e+01  3.4366683502531806e+01  3.4060960202866731e+01  3.3700676796915701e+01  3.3275439257051325e+01  3.2772575725206913e+01  3.2176549373630465e+01  3.1468208360414561e+01  3.0623838010473275e+01  2.9613990677289681e+01  2.8402107730227112e+01  2.6943051773539345e+01  2.5181905825211732e+01  2.3053890722206496e+01  2.0487157066347311e+01  1.7411538445156413e+01  1.3777377503296549e+01  9.5866200696434927e+00  4.9290288375007005e+00  0.0000000000000000e+00  0.0000000000000000e+00  4.1387431512248547e+00  8.1032775408567765e+00  1.1756902068776522e+01  1.5019823962706031e+01  1.7866786717714962e+01  2.0311910633495806e+01  2.2391498205458952e+01  2.4150725687670722e+01  2.5635415153638121e+01  2.6887830782527722e+01  2.7945025535518489e+01  2.8838579688293301e+01  2.9594997090734104e+01  3.0236349351906476e+01  3.0780961294430217e+01  3.1244045113589060e+01  3.1638249913401900e+01  3.1974121762381177e+01  3.2260481681680218e+01  3.2504733178179819e+01  3.2713111374412719e+01  3.2890884656493860e+01  3.3042518124563003e+01  3.3171806472535899e+01  3.3281982441602061e+01  3.3375805743493501e+01  3.3455636332050290e+01  3.3523495087830412e+01  3.3581114336780566e+01  3.3629980117880045e+01  3.3671367717974007e+01  3.3706371681360167e+01  3.3735931258302401e+01  3.3760852065650425e+01  3.3781824582515320e+01  3.3799439985419490e+01  3.3814203733476205e+01  3.3826547239498254e+01  3.3836837903257845e+01  3.3845387735133045e+01  3.3852460759528682e+01  3.3858279355759045e+01  3.3863029667978111e+01  3.3866866194021597e+01  3.3869915644736338e+01  3.3872280149763135e+01  3.3874039872219107e+01  3.3875255082821013e+01  3.3875967733326014e+01  3.3876202559428215e+01  3.3875967734188649e+01  3.3875255084468449e+01  3.3874039874493775e+01  3.3872280152424089e+01  3.3869915647453681e+01  3.3866866196369472e+01  3.3863029669426211e+01  3.3858279355663193e+01  3.3852460757120127e+01  3.3845387729507436e+01  3.3836837893364233e+01  3.3826547224128305e+01  3.3814203711254336e+01  3.3799439954794245e+01  3.3781824541752833e+01  3.3760852012830171e+01  3.3735931191316403e+01  3.3706371597915556e+01  3.3671367615599642e+01  3.3629979993938093e+01  3.3581114188482381e+01  3.3523494912257654e+01  3.3455636126181091e+01  3.3375805504233107e+01  3.3281982165817908e+01  3.3171806157096135e+01  3.3042517766377408e+01  3.2890884252555857e+01  3.2713110921840816e+01  3.2504732674256260e+01  3.2260481123884944e+01  3.1974121148417797e+01  3.1638249241213462e+01  3.1244044381359821e+01  3.0780960500570636e+01  3.0236348495017317e+01  2.9594996169546310e+01  2.8838578701579806e+01  2.7945024481974748e+01  2.6887829660617275e+01  2.5635413961400992e+01  2.4150724422493056e+01  2.2391496863805092e+01  2.0311909210605812e+01  1.7866785207274475e+01  1.5019822356493579e+01  1.1756900356286476e+01  8.1032757088845511e+00  4.1387411833976637e+00  0.0000000000000000e+00  0.0000000000000000e+00  3.5321120050109753e+00  6.9462127072792264e+00  1.0144371148656948e+01  1.3061008625774404e+01  1.5664686988416161e+01  1.7952132135994194e+01  1.9939199278285091e+01  2.1652384608887548e+01  2.3122486911167695e+01  2.4380570592512814e+01  2.5455741468714713e+01  2.6374135857808728e+01  2.7158633856563601e+01  2.7828961620437088e+01  2.8401975877964635e+01  2.8892012883339550e+01  2.9311239747922112e+01  2.9669978718516887e+01  2.9976993022296739e+01  3.0239732300770264e+01  3.0464540152169015e