<?xml version="1.0"?>
<VTKFile type="UnstructuredGrid"  version="0.1"  >
<UnstructuredGrid>
<Piece  NumberOfPoints="10201" NumberOfCells="20000">
<Points>
<DataArray  type="Float64"  NumberOfComponents="3"  format="ascii">0 0 0  0.01 0 0  0.02 0 0  0.03 0 0  0.04 0 0  0.05 0 0  0.06 0 0  0.07000000000000001 0 0  0.08 0 0  0.09 0 0  0.1 0 0  0.11 0 0  0.12 0 0  0.13 0 0  0.14 0 0  0.15 0 0  0.16 0 0  0.17 0 0  0.18 0 0  0.19 0 0  0.2 0 0  0.21 0 0  0.22 0 0  0.23 0 0  0.24 0 0  0.25 0 0  0.26 0 0  0.27 0 0  0.28 0 0  0.29 0 0  0.3 0 0  0.31 0 0  0.32 0 0  0.33 0 0  0.34 0 0  0.35 0 0  0.36 0 0  0.37 0 0  0.38 0 0  0.39 0 0  0.4 0 0  0.41 0 0  0.42 0 0  0.43 0 0  0.44 0 0  0.45 0 0  0.46 0 0  0.47 0 0  0.48 0 0  0.49 0 0  0.5 0 0  0.51 0 0  0.52 0 0  0.53 0 0  0.54 0 0  0.55 0 0  0.5600000000000001 0 0  0.57 0 0  0.58 0 0  0.59 0 0  0.6 0 0  0.61 0 0  0.62 0 0  0.63 0 0  0.64 0 0  0.65 0 0  0.66 0 0  0.67 0 0  0.68 0 0  0.6899999999999999 0 0  0.7 0 0  0.71 0 0  0.72 0 0  0.73 0 0  0.74 0 0  0.75 0 0  0.76 0 0  0.77 0 0  0.78 0 0  0.79 0 0  0.8 0 0  0.8100000000000001 0 0  0.82 0 0  0.83 0 0  0.84 0 0  0.85 0 0  0.86 0 0  0.87 0 0  0.88 0 0  0.89 0 0  0.9 0 0  0.91 0 0  0.92 0 0  0.93 0 0  0.9399999999999999 0 0  0.95 0 0  0.96 0 0  0.97 0 0  0.98 0 0  0.99 0 0  1 0 0  0 0.01 0  0.01 0.01 0  0.02 0.01 0  0.03 0.01 0  0.04 0.01 0  0.05 0.01 0  0.06 0.01 0  0.07000000000000001 0.01 0  0.08 0.01 0  0.09 0.01 0  0.1 0.01 0  0.11 0.01 0  0.12 0.01 0  0.13 0.01 0  0.14 0.01 0  0.15 0.01 0  0.16 0.01 0  0.17 0.01 0  0.18 0.01 0  0.19 0.01 0  0.2 0.01 0  0.21 0.01 0  0.22 0.01 0  0.23 0.01 0  0.24 0.01 0  0.25 0.01 0  0.26 0.01 0  0.27 0.01 0  0.28 0.01 0  0.29 0.01 0  0.3 0.01 0  0.31 0.01 0  0.32 0.01 0  0.33 0.01 0  0.34 0.01 0  0.35 0.01 0  0.36 0.01 0  0.37 0.01 0  0.38 0.01 0  0.39 0.01 0  0.4 0.01 0  0.41 0.01 0  0.42 0.01 0  0.43 0.01 0  0.44 0.01 0  0.45 0.01 0  0.46 0.01 0  0.47 0.01 0  0.48 0.01 0  0.49 0.01 0  0.5 0.01 0  0.51 0.01 0  0.52 0.01 0  0.53 0.01 0  0.54 0.01 0  0.55 0.01 0  0.5600000000000001 0.01 0  0.57 0.01 0  0.58 0.01 0  0.59 0.01 0  0.6 0.01 0  0.61 0.01 0  0.62 0.01 0  0.63 0.01 0  0.64 0.01 0  0.65 0.01 0  0.66 0.01 0  0.67 0.01 0  0.68 0.01 0  0.6899999999999999 0.01 0  0.7 0.01 0  0.71 0.01 0  0.72 0.01 0  0.73 0.01 0  0.74 0.01 0  0.75 0.01 0  0.76 0.01 0  0.77 0.01 0  0.78 0.01 0  0.79 0.01 0  0.8 0.01 0  0.8100000000000001 0.01 0  0.82 0.01 0  0.83 0.01 0  0.84 0.01 0  0.85 0.01 0  0.86 0.01 0  0.87 0.01 0  0.88 0.01 0  0.89 0.01 0  0.9 0.01 0  0.91 0.01 0  0.92 0.01 0  0.93 0.01 0  0.9399999999999999 0.01 0  0.95 0.01 0  0.96 0.01 0  0.97 0.01 0  0.98 0.01 0  0.99 0.01 0  1 0.01 0  0 0.02 0  0.01 0.02 0  0.02 0.02 0  0.03 0.02 0  0.04 0.02 0  0.05 0.02 0  0.06 0.02 0  0.07000000000000001 0.02 0  0.08 0.02 0  0.09 0.02 0  0.1 0.02 0  0.11 0.02 0  0.12 0.02 0  0.13 0.02 0  0.14 0.02 0  0.15 0.02 0  0.16 0.02 0  0.17 0.02 0  0.18 0.02 0  0.19 0.02 0  0.2 0.02 0  0.21 0.02 0  0.22 0.02 0  0.23 0.02 0  0.24 0.02 0  0.25 0.02 0  0.26 0.02 0  0.27 0.02 0  0.28 0.02 0  0.29 0.02 0  0.3 0.02 0  0.31 0.02 0  0.32 0.02 0  0.33 0.02 0  0.34 0.02 0  0.35 0.02 0  0.36 0.02 0  0.37 0.02 0  0.38 0.02 0  0.39 0.02 0  0.4 0.02 0  0.41 0.02 0  0.42 0.02 0  0.43 0.02 0  0.44 0.02 0  0.45 0.02 0  0.46 0.02 0  0.47 0.02 0  0.48 0.02 0  0.49 0.02 0  0.5 0.02 0  0.51 0.02 0  0.52 0.02 0  0.53 0.02 0  0.54 0.02 0  0.55 0.02 0  0.5600000000000001 0.02 0  0.57 0.02 0  0.58 0.02 0  0.59 0.02 0  0.6 0.02 0  0.61 0.02 0  0.62 0.02 0  0.63 0.02 0  0.64 0.02 0  0.65 0.02 0  0.66 0.02 0  0.67 0.02 0  0.68 0.02 0  0.6899999999999999 0.02 0  0.7 0.02 0  0.71 0.02 0  0.72 0.02 0  0.73 0.02 0  0.74 0.02 0  0.75 0.02 0  0.76 0.02 0  0.77 0.02 0  0.78 0.02 0  0.79 0.02 0  0.8 0.02 0  0.8100000000000001 0.02 0  0.82 0.02 0  0.83 0.02 0  0.84 0.02 0  0.85 0.02 0  0.86 0.02 0  0.87 0.02 0  0.88 0.02 0  0.89 0.02 0  0.9 0.02 0  0.91 0.02 0  0.92 0.02 0  0.93 0.02 0  0.9399999999999999 0.02 0  0.95 0.02 0  0.96 0.02 0  0.97 0.02 0  0.98 0.02 0  0.99 0.02 0  1 0.02 0  0 0.03 0  0.01 0.03 0  0.02 0.03 0  0.03 0.03 0  0.04 0.03 0  0.05 0.03 0  0.06 0.03 0  0.07000000000000001 0.03 0  0.08 0.03 0  0.09 0.03 0  0.1 0.03 0  0.11 0.03 0  0.12 0.03 0  0.13 0.03 0  0.14 0.03 0  0.15 0.03 0  0.16 0.03 0  0.17 0.03 0  0.18 0.03 0  0.19 0.03 0  0.2 0.03 0  0.21 0.03 0  0.22 0.03 0  0.23 0.03 0  0.24 0.03 0  0.25 0.03 0  0.26 0.03 0  0.27 0.03 0  0.28 0.03 0  0.29 0.03 0  0.3 0.03 0  0.31 0.03 0  0.32 0.03 0  0.33 0.03 0  0.34 0.03 0  0.35 0.03 0  0.36 0.03 0  0.37 0.03 0  0.38 0.03 0  0.39 0.03 0  0.4 0.03 0  0.41 0.03 0  0.42 0.03 0  0.43 0.03 0  0.44 0.03 0  0.45 0.03 0  0.46 0.03 0  0.47 0.03 0  0.48 0.03 0  0.49 0.03 0  0.5 0.03 0  0.51 0.03 0  0.52 0.03 0  0.53 0.03 0  0.54 0.03 0  0.55 0.03 0  0.5600000000000001 0.03 0  0.57 0.03 0  0.58 0.03 0  0.59 0.03 0  0.6 0.03 0  0.61 0.03 0  0.62 0.03 0  0.63 0.03 0  0.64 0.03 0  0.65 0.03 0  0.66 0.03 0  0.67 0.03 0  0.68 0.03 0  0.6899999999999999 0.03 0  0.7 0.03 0  0.71 0.03 0  0.72 0.03 0  0.73 0.03 0  0.74 0.03 0  0.75 0.03 0  0.76 0.03 0  0.77 0.03 0  0.78 0.03 0  0.79 0.03 0  0.8 0.03 0  0.8100000000000001 0.03 0  0.82 0.03 0  0.83 0.03 0  0.84 0.03 0  0.85 0.03 0  0.86 0.03 0  0.87 0.03 0  0.88 0.03 0  0.89 0.03 0  0.9 0.03 0  0.91 0.03 0  0.92 0.03 0  0.93 0.03 0  0.9399999999999999 0.03 0  0.95 0.03 0  0.96 0.03 0  0.97 0.03 0  0.98 0.03 0  0.99 0.03 0  1 0.03 0  0 0.04 0  0.01 0.04 0  0.02 0.04 0  0.03 0.04 0  0.04 0.04 0  0.05 0.04 0  0.06 0.04 0  0.07000000000000001 0.04 0  0.08 0.04 0  0.09 0.04 0  0.1 0.04 0  0.11 0.04 0  0.12 0.04 0  0.13 0.04 0  0.14 0.04 0  0.15 0.04 0  0.16 0.04 0  0.17 0.04 0  0.18 0.04 0  0.19 0.04 0  0.2 0.04 0  0.21 0.04 0  0.22 0.04 0  0.23 0.04 0  0.24 0.04 0  0.25 0.04 0  0.26 0.04 0  0.27 0.04 0  0.28 0.04 0  0.29 0.04 0  0.3 0.04 0  0.31 0.04 0  0.32 0.04 0  0.33 0.04 0  0.34 0.04 0  0.35 0.04 0  0.36 0.04 0  0.37 0.04 0  0.38 0.04 0  0.39 0.04 0  0.4 0.04 0  0.41 0.04 0  0.42 0.04 0  0.43 0.04 0  0.44 0.04 0  0.45 0.04 0  0.46 0.04 0  0.47 0.04 0  0.48 0.04 0  0.49 0.04 0  0.5 0.04 0  0.51 0.04 0  0.52 0.04 0  0.53 0.04 0  0.54 0.04 0  0.55 0.04 0  0.5600000000000001 0.04 0  0.57 0.04 0  0.58 0.04 0  0.59 0.04 0  0.6 0.04 0  0.61 0.04 0  0.62 0.04 0  0.63 0.04 0  0.64 0.04 0  0.65 0.04 0  0.66 0.04 0  0.67 0.04 0  0.68 0.04 0  0.6899999999999999 0.04 0  0.7 0.04 0  0.71 0.04 0  0.72 0.04 0  0.73 0.04 0  0.74 0.04 0  0.75 0.04 0  0.76 0.04 0  0.77 0.04 0  0.78 0.04 0  0.79 0.04 0  0.8 0.04 0  0.8100000000000001 0.04 0  0.82 0.04 0  0.83 0.04 0  0.84 0.04 0  0.85 0.04 0  0.86 0.04 0  0.87 0.04 0  0.88 0.04 0  0.89 0.04 0  0.9 0.04 0  0.91 0.04 0  0.92 0.04 0  0.93 0.04 0  0.9399999999999999 0.04 0  0.95 0.04 0  0.96 0.04 0  0.97 0.04 0  0.98 0.04 0  0.99 0.04 0  1 0.04 0  0 0.05 0  0.01 0.05 0  0.02 0.05 0  0.03 0.05 0  0.04 0.05 0  0.05 0.05 0  0.06 0.05 0  0.07000000000000001 0.05 0  0.08 0.05 0  0.09 0.05 0  0.1 0.05 0  0.11 0.05 0  0.12 0.05 0  0.13 0.05 0  0.14 0.05 0  0.15 0.05 0  0.16 0.05 0  0.17 0.05 0  0.18 0.05 0  0.19 0.05 0  0.2 0.05 0  0.21 0.05 0  0.22 0.05 0  0.23 0.05 0  0.24 0.05 0  0.25 0.05 0  0.26 0.05 0  0.27 0.05 0  0.28 0.05 0  0.29 0.05 0  0.3 0.05 0  0.31 0.05 0  0.32 0.05 0  0.33 0.05 0  0.34 0.05 0  0.35 0.05 0  0.36 0.05 0  0.37 0.05 0  0.38 0.05 0  0.39 0.05 0  0.4 0.05 0  0.41 0.05 0  0.42 0.05 0  0.43 0.05 0  0.44 0.05 0  0.45 0.05 0  0.46 0.05 0  0.47 0.05 0  0.48 0.05 0  0.49 0.05 0  0.5 0.05 0  0.51 0.05 0  0.52 0.05 0  0.53 0.05 0  0.54 0.05 0  0.55 0.05 0  0.5600000000000001 0.05 0  0.57 0.05 0  0.58 0.05 0  0.59 0.05 0  0.6 0.05 0  0.61 0.05 0  0.62 0.05 0  0.63 0.05 0  0.64 0.05 0  0.65 0.05 0  0.66 0.05 0  0.67 0.05 0  0.68 0.05 0  0.6899999999999999 0.05 0  0.7 0.05 0  0.71 0.05 0  0.72 0.05 0  0.73 0.05 0  0.74 0.05 0  0.75 0.05 0  0.76 0.05 0  0.77 0.05 0  0.78 0.05 0  0.79 0.05 0  0.8 0.05 0  0.8100000000000001 0.05 0  0.82 0.05 0  0.83 0.05 0  0.84 0.05 0  0.85 0.05 0  0.86 0.05 0  0.87 0.05 0  0.88 0.05 0  0.89 0.05 0  0.9 0.05 0  0.91 0.05 0  0.92 0.05 0  0.93 0.05 0  0.9399999999999999 0.05 0  0.95 0.05 0  0.96 0.05 0  0.97 0.05 0  0.98 0.05 0  0.99 0.05 0  1 0.05 0  0 0.06 0  0.01 0.06 0  0.02 0.06 0  0.03 0.06 0  0.04 0.06 0  0.05 0.06 0  0.06 0.06 0  0.07000000000000001 0.06 0  0.08 0.06 0  0.09 0.06 0  0.1 0.06 0  0.11 0.06 0  0.12 0.06 0  0.13 0.06 0  0.14 0.06 0  0.15 0.06 0  0.16 0.06 0  0.17 0.06 0  0.18 0.06 0  0.19 0.06 0  0.2 0.06 0  0.21 0.06 0  0.22 0.06 0  0.23 0.06 0  0.24 0.06 0  0.25 0.06 0  0.26 0.06 0  0.27 0.06 0  0.28 0.06 0  0.29 0.06 0  0.3 0.06 0  0.31 0.06 0  0.32 0.06 0  0.33 0.06 0  0.34 0.06 0  0.35 0.06 0  0.36 0.06 0  0.37 0.06 0  0.38 0.06 0  0.39 0.06 0  0.4 0.06 0  0.41 0.06 0  0.42 0.06 0  0.43 0.06 0  0.44 0.06 0  0.45 0.06 0  0.46 0.06 0  0.47 0.06 0  0.48 0.06 0  0.49 0.06 0  0.5 0.06 0  0.51 0.06 0  0.52 0.06 0  0.53 0.06 0  0.54 0.06 0  0.55 0.06 0  0.5600000000000001 0.06 0  0.57 0.06 0  0.58 0.06 0  0.59 0.06 0  0.6 0.06 0  0.61 0.06 0  0.62 0.06 0  0.63 0.06 0  0.64 0.06 0  0.65 0.06 0  0.66 0.06 0  0.67 0.06 0  0.68 0.06 0  0.6899999999999999 0.06 0  0.7 0.06 0  0.71 0.06 0  0.72 0.06 0  0.73 0.06 0  0.74 0.06 0  0.75 0.06 0  0.76 0.06 0  0.77 0.06 0  0.78 0.06 0  0.79 0.06 0  0.8 0.06 0  0.8100000000000001 0.06 0  0.82 0.06 0  0.83 0.06 0  0.84 0.06 0  0.85 0.06 0  0.86 0.06 0  0.87 0.06 0  0.88 0.06 0  0.89 0.06 0  0.9 0.06 0  0.91 0.06 0  0.92 0.06 0  0.93 0.06 0  0.9399999999999999 0.06 0  0.95 0.06 0  0.96 0.06 0  0.97 0.06 0  0.98 0.06 0  0.99 0.06 0  1 0.06 0  0 0.07000000000000001 0  0.01 0.07000000000000001 0  0.02 0.07000000000000001 0  0.03 0.07000000000000001 0  0.04 0.07000000000000001 0  0.05 0.07000000000000001 0  0.06 0.07000000000000001 0  0.07000000000000001 0.07000000000000001 0  0.08 0.07000000000000001 0  0.09 0.07000000000000001 0  0.1 0.07000000000000001 0  0.11 0.07000000000000001 0  0.12 0.07000000000000001 0  0.13 0.07000000000000001 0  0.14 0.07000000000000001 0  0.15 0.07000000000000001 0  0.16 0.07000000000000001 0  0.17 0.0700
[...]
<PointData  Scalars="f_17"> 
<DataArray  type="Float64"  Name="f_17"  format="ascii">0.0000000000000000e+00  5.0000000000000000e+01  5.0000000000000000e+01  5.0000000000000000e+01  5.0000000000000000e+01  5.0000000000000000e+01  5.0000000000000000e+01  5.0000000000000000e+01  5.0000000000000000e+01  5.0000000000000000e+01  5.0000000000000000e+01  5.0000000000000000e+01  5.0000000000000000e+01  5.0000000000000000e+01  5.0000000000000000e+01  5.0000000000000000e+01  5.0000000000000000e+01  5.0000000000000000e+01  5.0000000000000000e+01  5.0000000000000000e+01  5.0000000000000000e+01  5.0000000000000000e+01  5.0000000000000000e+01  5.0000000000000000e+01  5.0000000000000000e+01  5.0000000000000000e+01  5.0000000000000000e+01  5.0000000000000000e+01  5.0000000000000000e+01  5.0000000000000000e+01  5.0000000000000000e+01  5.0000000000000000e+01  5.0000000000000000e+01  5.0000000000000000e+01  5.0000000000000000e+01  5.0000000000000000e+01  5.0000000000000000e+01  5.0000000000000000e+01  5.0000000000000000e+01  5.0000000000000000e+01  5.0000000000000000e+01  5.0000000000000000e+01  5.0000000000000000e+01  5.0000000000000000e+01  5.0000000000000000e+01  5.0000000000000000e+01  5.0000000000000000e+01  5.0000000000000000e+01  5.0000000000000000e+01  5.0000000000000000e+01  5.0000000000000000e+01  5.0000000000000000e+01  5.0000000000000000e+01  5.0000000000000000e+01  5.0000000000000000e+01  5.0000000000000000e+01  5.0000000000000000e+01  5.0000000000000000e+01  5.0000000000000000e+01  5.0000000000000000e+01  5.0000000000000000e+01  5.0000000000000000e+01  5.0000000000000000e+01  5.0000000000000000e+01  5.0000000000000000e+01  5.0000000000000000e+01  5.0000000000000000e+01  5.0000000000000000e+01  5.0000000000000000e+01  5.0000000000000000e+01  5.0000000000000000e+01  5.0000000000000000e+01  5.0000000000000000e+01  5.0000000000000000e+01  5.0000000000000000e+01  5.0000000000000000e+01  5.0000000000000000e+01  5.0000000000000000e+01  5.0000000000000000e+01  5.0000000000000000e+01  5.0000000000000000e+01  5.0000000000000000e+01  5.0000000000000000e+01  5.0000000000000000e+01  5.0000000000000000e+01  5.0000000000000000e+01  5.0000000000000000e+01  5.0000000000000000e+01  5.0000000000000000e+01  5.0000000000000000e+01  5.0000000000000000e+01  5.0000000000000000e+01  5.0000000000000000e+01  5.0000000000000000e+01  5.0000000000000000e+01  5.0000000000000000e+01  5.0000000000000000e+01  5.0000000000000000e+01  5.0000000000000000e+01  5.0000000000000000e+01  0.0000000000000000e+00  0.0000000000000000e+00  2.4961588946806128e+01  3.5176861775707380e+01  3.9645310256622246e+01  4.2049415740214506e+01  4.3525771184383423e+01  4.4514403816605601e+01  4.5217042784800043e+01  4.5738279498951783e+01  4.6137515514629897e+01  4.6450915541802161e+01  4.6701732061680978e+01  4.6905586604202732e+01  4.7073359534765331e+01  4.7212860901845985e+01  4.7329841897382884e+01  4.7428631389846956e+01  4.7512550052583947e+01  4.7584187670382612e+01  4.7645593568157338e+01  4.7698410322278733e+01  4.7743969524795794e+01  4.7783361598068232e+01  4.7817487513209016e+01  4.7847097664187146e+01  4.7872821478137780e+01  4.7895190246094089e+01  4.7914654925394892e+01  4.7931600166435423e+01  4.7946355471831239e+01  4.7959204154397689e+01  4.7970390588559617e+01  4.7980126126158439e+01  4.7988593957591739e+01  4.7995953132951840e+01  4.8002341908560844e+01  4.8007880547323282e+01  4.8012673673316101e+01  4.8016812259656852e+01  4.8020375312232609e+01  4.8023431299105958e+01  4.8026039365435800e+01  4.8028250365891864e+01  4.8030107740302583e+01  4.8031648253285361e+01  4.8032902614574894e+01  4.8033895993477721e+01  4.8034648438165156e+01  4.8035175208244787e+01  4.8035487027113120e+01  4.8035590258911164e+01  4.8035487013402772e+01  4.8035175180721048e+01  4.8034648396622607e+01  4.8033895937609927e+01  4.8032902543976441e+01  4.8031648167454385e+01  4.8030107638644296e+01  4.8028250247722717e+01  4.8026039229988314e+01  4.8023431145534289e+01  4.8020375139619176e+01  4.8016812067019558e+01  4.8012673459616202e+01  4.8007880311474430e+01  4.8002341649438748e+01  4.7995952849404702e+01  4.7988593648451392e+01  4.7980125790252245e+01  4.7970390224723154e+01  4.7959203761487551e+01  4.7946355048738610e+01  4.7931599712100009e+01  4.7914654438818673e+01  4.7895189726355518e+01  4.7872820924405431e+01  4.7847097075733110e+01  4.7817486889421950e+01  4.7783360938465314e+01  4.7743968829033783e+01  4.7698409590163536e+01  4.7645592799652590e+01  4.7584186865615742e+01  4.7512549211850633e+01  4.7428630513613037e+01  4.7329840986283649e+01  4.7212859956682294e+01  4.7073358556496366e+01  4.6905585593934823e+01  4.6701731020651451e+01  4.6450914471357137e+01  4.6137514416194044e+01  4.5738278373985935e+01  4.5217041634738521e+01  4.4514402642753076e+01  4.3525769987719492e+01  4.2049414520939948e+01  3.9645309012824207e+01  3.5176860498281677e+01  2.4961587594541051e+01  0.0000000000000000e+00  0.0000000000000000e+00  1.4669680601979080e+01  2.4846729508003065e+01  3.1055289168823901e+01  3.4936577528865605e+01  3.7506869629389556e+01  3.9301669530319934e+01  4.0609939482453029e+01  4.1596432336855358e+01  4.2360477447249139e+01  4.2965008935448758e+01  4.3451636916175048e+01  4.3848889536443366e+01  4.4176941538864256e+01  4.4450445211844311e+01  4.4680289995738526e+01  4.4874732797218236e+01  4.5040145434429157e+01  4.5181521750499151e+01  4.5302829615861363e+01  4.5407260303915614e+01  4.5497408435699235e+01  4.5575403999170028e+01  4.5643010680962014e+01  4.5701700124288436e+01  4.5752708721769316e+01  4.5797081561320041e+01  4.5835706801000335e+01  4.5869342828862941e+01  4.5898639923932990e+01  4.5924157683080871e+01  4.5946379156062044e+01  4.5965722397824280e+01  4.5982549976703680e+01  4.5997176851196144e+01  4.6009876934048592e+01  4.6020888591702040e+01  4.6030419273424350e+01  4.6038649423374878e+01  4.6045735797133069e+01  4.6051814279578792e+01  4.6057002281708108e+01  4.6061400778741543e+01  4.6065096039772463e+01  4.6068161089499945e+01  4.6070656934741386e+01  4.6072633582008244e+01  4.6074130867129021e+01  4.6075179113462191e+01  4.6075799631450742e+01  4.6076005068977629e+01  4.6075799619037014e+01  4.6075179088539443e+01  4.6074130829507098e+01  4.6072633531403767e+01  4.6070656870779409e+01  4.6068161011716150e+01  4.6065095947616655e+01  4.6061400671581602e+01  4.6057002158833988e+01  4.6051814140208180e+01  4.6045735640417256e+01  4.6038649248405576e+01  4.6030419079240836e+01  4.6020888377299435e+01  4.6009876698387032e+01  4.5997176593210156e+01  4.5982549695312613e+01  4.5965722091942887e+01  4.5946378824612275e+01  4.5924157325003421e+01  4.5898639538199667e+01  4.5869342414488756e+01  4.5835706357056146e+01  4.5797081086944729e+01  4.5752708216181574e+01  4.5701699586798242e+01  4.5643010110981059e+01  4.5575403396221695e+01  4.5497407799426419e+01  4.5407259634087588e+01  4.5302828912378757e+01  4.5181521013396512e+01  4.5040144663874841e+01  4.4874731993511631e+01  4.4680289159304088e+01  4.4450444343221051e+01  4.4176940638691114e+01  4.3848888605438830e+01  4.3451635955110454e+01  4.2965007945112085e+01  4.2360476428396886e+01  4.1596431290146725e+01  4.0609938408354893e+01  3.9301668428960305e+01  3.7506868500312429e+01  3.4936576370588149e+01  3.1055287978042234e+01  2.4846728278852222e+01  1.4669679333688025e+01  0.0000000000000000e+00  0.0000000000000000e+00  1.0124971287880474e+01  1.8485834842143689e+01  2.4656543348006501e+01  2.9059748387326319e+01  3.2227568143798628e+01  3.4558605367055748e+01  3.6317026720521064e+01  3.7674239974521875e+01  3.8742836909002548e+01  3.9598515004802309e+01  4.0293500068253088e+01  4.0864744589373252e+01  4.1339013827042493e+01  4.1736111162499924e+01  4.2070972301469901e+01  4.2355056963299532e+01  4.2597294287832113e+01  4.2804738357852273e+01  4.2983031395877703e+01  4.3136736804526734e+01  4.3269582484600292e+01  4.3384641239289607e+01  4.3484466361234531e+01  4.3571194824586776e+01  4.3646626742667387e+01  4.3712287217121307e+01  4.3769474970106010e+01  4.3819300947192438e+01  4.3862719231771614e+01  4.3900552008499062e+01  4.3933509878530046e+01  4.3962208512491188e+01  4.3987182393908249e+01  4.4008896232445395e+01  4.4027754496269672e+01  4.4044109414470626e+01  4.4058267725422617e+01  4.4070496389294519e+01  4.4081027438242231e+01  4.4090062102973683e+01  4.4097774326999854e+01  4.4104313758223249e+01  4.4109808290241801e+01  4.4114366211867505e+01  4.4118078012106075e+01  4.4121017878630397e+01  4.4123244920147357e+01  4.4124804136646745e+01  4.4125727156042494e+01  4.4126032750942279e+01  4.4125727145014629e+01  4.4124804114502282e+01  4.4123244886709372e+01  4.4121017833634937e+01  4.4118077955203844e+01  4.4114366142626054e+01  4.4109808208148500e+01  4.4104313662688767e+01  4.4097774217362371e+01  4.4090061978503599e+01  4.4081027298147767e+01  4.4070496232727599e+01  4.4058267551486125e+01  4.4044109222225671e+01  4.4027754284743963e+01  4.4008896000642025e+01  4.3987182140815115e+01  4.3962208237091062e+01  4.3933509579810973e+01  4.3900551685465217e+01  4.3862718883454264e+01  4.3819300572661199e+01  4.3769474568479765e+01  4.3712286787579053e+01  4.3646626284458648e+01  4.3571194337041227e+01  4.3484465843770721e+01  4.3384640691422270e+01  4.3269581905946644e+01  4.3136736194810219e+01  4.2983030754930304e+01  4.2804737685613752e+01  4.2597293584346339e+01  4.2355056228707525e+01  4.2070971535998972e+01  4.1736110366447853e+01  4.1339013000756538e+01  4.0864743733222454e+01  4.0293499182592619e+01  3.9598514089927193e+01  3.8742835965087991e+01  3.7674239001544443e+01  3.6317025718152692e+01  3.4558604334518130e+01  3.2227567079663757e+01  2.9059747289271311e+01  2.4656542212666064e+01  1.8485833665720328e+01  1.0124970068157571e+01  0.0000000000000000e+00  0.0000000000000000e+00  7.6451634625017419e+00  1.4453327063669841e+01  2.0026970913474766e+01  2.4392877072837603e+01  2.7764891737691958e+01  3.0376364294378458e+01  3.2419705369329343e+01  3.4039100937927955e+01  3.5339208038301052e+01  3.6395616086383235e+01  3.7263307471138923e+01  3.7982770985187187e+01  3.8584251917125520e+01  3.9090677890555639e+01  3.9519679385076827e+01  3.9884998008853756e+01  4.0197479931962647e+01  4.0465785963705848e+01  4.0696905937551605e+01  4.0896536269471675e+01  4.1069360621965977e+01  4.1219261078647001e+01  4.1349478866887772e+01  4.1462738015671732e+01  4.1561341475558116e+01  4.1647246559197448e+01  4.1722124694570468e+01  4.1787409163033622e+01  4.1844333550234097e+01  4.1893962955766455e+01  4.1937219509504018e+01  4.1974903375616563e+01  4.2007710152448468e+01  4.2036245371805094e+01  4.2061036646462732e+01  4.2082543896804708e+01  4.2101167996955475e+01  4.2117258110781790e+01  4.2131117933623166e+01  4.2143011012882297e+01  4.2153165286882995e+01  4.2161776954598658e+01  4.2169013767404174e+01  4.2175017816699423e+01  4.2179907877174294e+01  4.2183781353922505e+01  4.2186715871999141e+01  4.2188770538920906e+01  4.2189986903672640e+01  4.2190389629720855e+01  4.2189986894108472e+01  4.2188770519709287e+01  4.2186715842973818e+01  4.2183781314835528e+01  4.2179907827697235e+01  4.2175017756425675e+01  4.2169013695851483e+01  4.2161776871212211e+01  4.2153165191039285e+01  4.2143010903893504e+01  4.2131117810742083e+01  4.2117257973207572e+01  4.2101167843839697e+01  4.2082543727258667e+01  4.2061036459564860e+01  4.2036245166609241e+01  4.2007709927992352e+01  4.1974903130931324e+01  4.1937219243623893e+01  4.1893962667738542e+01  4.1844333239128602e+01  4.1787408827954160e+01  4.1722124334663825e+01  4.1647246173663447e+01  4.1561341063658823e+01  4.1462737576739762e+01  4.1349478400333346e+01  4.1219260583964044e+01  4.1069360098735984e+01  4.0896535717366142e+01  4.0696905356331484e+01  4.0465785353218322e+01  4.0197479292134652e+01  3.9884997339681597e+01  3.9519678686611449e+01  3.9090677162882457e+01  3.8584251160338574e+01  3.7982770199356089e+01  3.7263306656266948e+01  3.6395615242354808e+01  3.5339207164816159e+01  3.4039100034419597e+01  3.2419704434860030e+01  3.0376363327513690e+01  2.7764890736355063e+01  2.4392876034179384e+01  2.0026969833850469e+01  1.4453325938827112e+01  7.6451622876174001e+00  0.0000000000000000e+00  0.0000000000000000e+00  6.0938438724669304e+00  1.1733290105984953e+01  1.6634991035148897e+01  2.0722831795085053e+01  2.4058271251862369e+01  2.6758249365767867e+01  2.8944801838539124e+01  3.0724230021674931e+01  3.2182342803760399e+01  3.3386161299573857e+01  3.4387407034517182e+01  3.5225946939961538e+01  3.5932648948067971e+01  3.6531591365696556e+01  3.7041722434907086e+01  3.7478092856280220e+01  3.7852769412367330e+01  3.8175514379730842e+01  3.8454293830192192e+01  3.8695660805862509e+01  3.8905046591308384e+01  3.9086984054433714e+01  3.9245280400749699e+01  3.9383151956009911e+01  3.9503330212450088e+01  3.9608145948997993e+01  3.9699596486067172e+01  3.9779399864487168e+01  3.9849038808117655e+01  3.9909796644143817e+01  3.9962786845897305e+01  4.0008977482075117e+01  4.0049211569087312e+01  4.0084224105295156e+01  4.0114656399295846e+01  4.0141068176211306e+01  4.0163947846649513e+01  4.0183721245617726e+01  4.0200759087976010e+01  4.0215383339123520e+01  4.0227872661581287e+01  4.0238467067740629e+01  4.0247371884593655e+01  4.0254761116441870e+01  4.0260780275377563e+01  4.0265548735969922e+01  4.0269161659432967e+01  4.0271691523121348e+01  4.0273189283091448e+01  4.0273685190353220e+01  4.0273189275057625e+01  4.0271691506974562e+01  4.0269161635015372e+01  4.0265548703045951e+01  4.0260780233634982e+01  4.0254761065493945e+01  4.0247371823981204e+01  4.0238466996934989e+01  4.0227872579987711e+01  4.0215383246084919e+01  4.0200758982777742e+01  4.0183721127492660e+01  4.0163947714783710e+01  4.0141068029750642e+01  4.0114656237352897e+01  4.0084223926956810e+01  4.0049211373422914e+01  4.0008977268145209e+01  3.9962786612762571e+01  3.9909796390874526e+01  3.9849038533803046e+01  3.9779399568245168e+01  3.9699596167053372e+01  3.9608145606414851e+01  3.9503329845555200e+01  3.9383151564123352e+01  3.9245279983260318e+01  3.9086983610803884e+01  3.8905046121076730e+01  3.8695660308644754e+01  3.8454293305678966e+01  3.8175513827682572e+01  3.7852768832605655e+01  3.7478092248675104e+01  3.7041721799359287e+01  3.6531590702114599e+01  3.5932648256338723e+01  3.5225946219913546e+01  3.4387406285875436e+01  3.3386160521904323e+01  3.2182341996402698e+01  3.0724229183661588e+01  2.8944800968499511e+01  2.6758248461819491e+01  2.4058270311496077e+01  2.0722830815062700e+01  1.6634990011432798e+01  1.1733289033661997e+01  6.0938427454663975e+00  0.0000000000000000e+00  0.0000000000000000e+00  5.0311595753025697e+00  9.7905680490173292e+00  1.4082522097144242e+01  1.7816956010799672e+01  2.0991629581155156e+01  2.3655917079637735e+01  2.5879715611190360e+01  2.7734621305905883e+01  2.9285178111763916e+01  3.0586087586163313e+01  3.1682292931332640e+01  3.2610180945123155e+01  3.3399050612811266e+01  3.4072491610386429e+01  3.4649554617982766e+01  3.5145699009262614e+01  3.5573542477323940e+01  3.5943447487021302e+01  3.6263978245812105e+01  3.6542256851837251e+01  3.6784241629449859e+01  3.6994945595899196e+01  3.7178608845115178e+01  3.7338835367080044e+01  3.7478702310680681e+01  3.7600847791032720e+01  3.7707541901392091e+01  3.7800744502460219e+01  3.7882152540446747e+01  3.7953239022985684e+01  3.8015285308850736e+01  3.8069408006072734e+01  3.8116581495784594e+01  3.8157656885283814e+01  3.8193378028042524e+01  3.8224395119235780e+01  3.8251276274191810e+01  3.8274517417511916e+01  3.8294550747556805e+01  3.8311751990823161e+01  3.8326446620583901e+01  3.8338915181852308e+01  3.8349397838559497e+01  3.8358098237490196e+01  3.8365186765976624e+01  3.8370803265797136e+01  3.8375059253517342e+01  3.8378039687137921e+01  3.8379804309954167e+01  3.8380388594645254e+01  3.8379804303506361e+01  3.8378039674166175e+01  3.8375059233869905e+01  3.8370803239247280e+01  3.8365186732223791e+01  3.8358098196161606e+01  3.8349397789212055e+01  3.8338915123975319e+01  3.8326446553601905e+01  3.8311751914099418e+01  3.8294550660397356e+01  3.8274517319170513e+01  3.8251276163875005e+01  3.8224394996108877e+01  3.8193377891236246e+01  3.8157656733901291e+01  3.8116581328909128e+01  3.8069407822776000e+01  3.8015285108201283e+01  3.7953238804058103e+01  3.7882152302330589e+01  3.7800744244269104e+01  3.7707541622272629e+01  3.7600847490173152e+01  3.7478701987318622e+01  3.7338835020509471e+01  3.7178608474692112e+01  3.6994945201045851e+01  3.6784241209656720e+01  3.6542256406662894e+01  3.6263977774880189e+01  3.5943446990014245e+01  3.5573541953973020e+01  3.5145698459333538e+01  3.4649554041256458e+01  3.4072491006634131e+01  3.3399049981763362e+01  3.2610180286430719e+01  3.1682292244520802e+01  3.0586086870575460e+01  2.9285177366495628e+01  2.7734620529727977e+01  2.5879714802461219e+01  2.3655916236206728e+01  2.0991628700261863e+01  1.7816955088973319e+01  1.4082521130099565e+01  9.7905670315146889e+00  5.0311585009049669e+00  0.0000000000000000e+00  0.0000000000000000e+00  4.2555490566141287e+00  8.3365334937220563e+00  1.2105898678361161e+01  1.5483505492182040e+01  1.8443760947470000e+01  2.1000461763610950e+01  2.3189602591705331e+01  2.5056070162972116e+01  2.6645417650177379e+01  2.7999662939248044e+01  2.9155636952231195e+01  3.0144723471296654e+01  3.0993256325914452e+01  3.1723164139674150e+01  3.2352655986283565e+01  3.2896855402171312e+01  3.3368349446030763e+01  3.3777647971473812e+01  3.4133560553445712e+01  3.4443502712514977e+01  3.4713743523183339e+01  3.4949605563363164e+01  3.5155626526317135e+01  3.5335690158564404e+01  3.5493132704002861e+01  3.5630829784450185e+01  3.5751267627040782e+01  3.5856601732343989e+01  3.5948705430134339e+01  3.6029210260144545e+01  3.6099539714760496e+01  3.6160937566221989e+01  3.6214491753791108e+01  3.6261154611767026e+01  3.6301760065609805e+01  3.6337038301782577e+01  3.6367628320258362e+01  3.6394088701534734e+01  3.6416906858262386e+01  3.6436506991940320e+01  3.6453256935018750e+01  3.6467474026177413e+01  3.6479430139952953e+01  3.6489355970032562e+01  3.6497444647438940e+01  3.6503854759720511e+01  3.6508712824508095e+01  3.6512115259896440e+01  3.6514129884642770e+01  3.6514796972799758e+01  3.6514129879826086e+01  3.6512115250188920e+01  3.6508712809761818e+01  3.6503854739714335e+01  3.6497444621879460e+01  3.6489355938555420e+01  3.6479430102124532e+01  3.6467473981497157e+01  3.6453256882921536e+01  3.6436506931799634e+01  3.6416906789393998e+01  3.6394088623200936e+01  3.6367628231672896e+01  3.6337038202116126e+01  3.6301759953996054e+01  3.6261154487309490e+01  3.6214491615570402e+01  3.6160937413303898e+01  3.6099539546204092e+01  3.6029210075011150e+01  3.5948705227496347e+01  3.5856601511293825e+01  3.5751267386699766e+01  3.5630829523976992e+01  3.5493132422601384e+01  3.5335689855490578e+01  3.5155626200884583e+01  3.4949605214947212e+01  3.4713743151223021e+01  3.4443502316512500e+01  3.4133560132963304e+01  3.3777647526126813e+01  3.3368348975477268e+01  3.2896854906097261e+01  3.2352655464382693e+01  3.1723163591622640e+01  3.0993255751339159e+01  3.0144722869736412e+01  2.9155636323090675e+01  2.7999662281743220e+01  2.6645416963272510e+01  2.5056069445307607e+01  2.3189601841517703e+01  2.1000460978645616e+01  1.8443760124889131e+01  1.5483504628467772e+01  1.2105897769209074e+01  8.3365325339126191e+00  4.2555480398463530e+00  0.0000000000000000e+00  0.0000000000000000e+00  3.6625807413048612e+00  7.2067528626629942e+00  1.0534190932150505e+01  1.3578929661737870e+01  1.6309155317286827e+01  1.8721232604878892e+01  2.0830673092200819e+01  2.2663649766201093e+01  2.4250661205789662e+01  2.5622496831471647e+01  2.6808014527477830e+01  2.7833131177516716e+01  2.8720536977354719e+01  2.9489798343200199e+01  3.0157642652884114e+01  3.0738307037011182e+01  3.1243889180969859e+01  3.1684670731731703e+01  3.2069401960434654e+01  3.2405545738299125e+01  3.2699483383396796e