<?xml version="1.0"?>
<VTKFile type="UnstructuredGrid"  version="0.1"  >
<UnstructuredGrid>
<Piece  NumberOfPoints="10201" NumberOfCells="20000">
<Points>
<DataArray  type="Float64"  NumberOfComponents="3"  format="ascii">0 0 0  0.01 0 0  0.02 0 0  0.03 0 0  0.04 0 0  0.05 0 0  0.06 0 0  0.07000000000000001 0 0  0.08 0 0  0.09 0 0  0.1 0 0  0.11 0 0  0.12 0 0  0.13 0 0  0.14 0 0  0.15 0 0  0.16 0 0  0.17 0 0  0.18 0 0  0.19 0 0  0.2 0 0  0.21 0 0  0.22 0 0  0.23 0 0  0.24 0 0  0.25 0 0  0.26 0 0  0.27 0 0  0.28 0 0  0.29 0 0  0.3 0 0  0.31 0 0  0.32 0 0  0.33 0 0  0.34 0 0  0.35 0 0  0.36 0 0  0.37 0 0  0.38 0 0  0.39 0 0  0.4 0 0  0.41 0 0  0.42 0 0  0.43 0 0  0.44 0 0  0.45 0 0  0.46 0 0  0.47 0 0  0.48 0 0  0.49 0 0  0.5 0 0  0.51 0 0  0.52 0 0  0.53 0 0  0.54 0 0  0.55 0 0  0.5600000000000001 0 0  0.57 0 0  0.58 0 0  0.59 0 0  0.6 0 0  0.61 0 0  0.62 0 0  0.63 0 0  0.64 0 0  0.65 0 0  0.66 0 0  0.67 0 0  0.68 0 0  0.6899999999999999 0 0  0.7 0 0  0.71 0 0  0.72 0 0  0.73 0 0  0.74 0 0  0.75 0 0  0.76 0 0  0.77 0 0  0.78 0 0  0.79 0 0  0.8 0 0  0.8100000000000001 0 0  0.82 0 0  0.83 0 0  0.84 0 0  0.85 0 0  0.86 0 0  0.87 0 0  0.88 0 0  0.89 0 0  0.9 0 0  0.91 0 0  0.92 0 0  0.93 0 0  0.9399999999999999 0 0  0.95 0 0  0.96 0 0  0.97 0 0  0.98 0 0  0.99 0 0  1 0 0  0 0.01 0  0.01 0.01 0  0.02 0.01 0  0.03 0.01 0  0.04 0.01 0  0.05 0.01 0  0.06 0.01 0  0.07000000000000001 0.01 0  0.08 0.01 0  0.09 0.01 0  0.1 0.01 0  0.11 0.01 0  0.12 0.01 0  0.13 0.01 0  0.14 0.01 0  0.15 0.01 0  0.16 0.01 0  0.17 0.01 0  0.18 0.01 0  0.19 0.01 0  0.2 0.01 0  0.21 0.01 0  0.22 0.01 0  0.23 0.01 0  0.24 0.01 0  0.25 0.01 0  0.26 0.01 0  0.27 0.01 0  0.28 0.01 0  0.29 0.01 0  0.3 0.01 0  0.31 0.01 0  0.32 0.01 0  0.33 0.01 0  0.34 0.01 0  0.35 0.01 0  0.36 0.01 0  0.37 0.01 0  0.38 0.01 0  0.39 0.01 0  0.4 0.01 0  0.41 0.01 0  0.42 0.01 0  0.43 0.01 0  0.44 0.01 0  0.45 0.01 0  0.46 0.01 0  0.47 0.01 0  0.48 0.01 0  0.49 0.01 0  0.5 0.01 0  0.51 0.01 0  0.52 0.01 0  0.53 0.01 0  0.54 0.01 0  0.55 0.01 0  0.5600000000000001 0.01 0  0.57 0.01 0  0.58 0.01 0  0.59 0.01 0  0.6 0.01 0  0.61 0.01 0  0.62 0.01 0  0.63 0.01 0  0.64 0.01 0  0.65 0.01 0  0.66 0.01 0  0.67 0.01 0  0.68 0.01 0  0.6899999999999999 0.01 0  0.7 0.01 0  0.71 0.01 0  0.72 0.01 0  0.73 0.01 0  0.74 0.01 0  0.75 0.01 0  0.76 0.01 0  0.77 0.01 0  0.78 0.01 0  0.79 0.01 0  0.8 0.01 0  0.8100000000000001 0.01 0  0.82 0.01 0  0.83 0.01 0  0.84 0.01 0  0.85 0.01 0  0.86 0.01 0  0.87 0.01 0  0.88 0.01 0  0.89 0.01 0  0.9 0.01 0  0.91 0.01 0  0.92 0.01 0  0.93 0.01 0  0.9399999999999999 0.01 0  0.95 0.01 0  0.96 0.01 0  0.97 0.01 0  0.98 0.01 0  0.99 0.01 0  1 0.01 0  0 0.02 0  0.01 0.02 0  0.02 0.02 0  0.03 0.02 0  0.04 0.02 0  0.05 0.02 0  0.06 0.02 0  0.07000000000000001 0.02 0  0.08 0.02 0  0.09 0.02 0  0.1 0.02 0  0.11 0.02 0  0.12 0.02 0  0.13 0.02 0  0.14 0.02 0  0.15 0.02 0  0.16 0.02 0  0.17 0.02 0  0.18 0.02 0  0.19 0.02 0  0.2 0.02 0  0.21 0.02 0  0.22 0.02 0  0.23 0.02 0  0.24 0.02 0  0.25 0.02 0  0.26 0.02 0  0.27 0.02 0  0.28 0.02 0  0.29 0.02 0  0.3 0.02 0  0.31 0.02 0  0.32 0.02 0  0.33 0.02 0  0.34 0.02 0  0.35 0.02 0  0.36 0.02 0  0.37 0.02 0  0.38 0.02 0  0.39 0.02 0  0.4 0.02 0  0.41 0.02 0  0.42 0.02 0  0.43 0.02 0  0.44 0.02 0  0.45 0.02 0  0.46 0.02 0  0.47 0.02 0  0.48 0.02 0  0.49 0.02 0  0.5 0.02 0  0.51 0.02 0  0.52 0.02 0  0.53 0.02 0  0.54 0.02 0  0.55 0.02 0  0.5600000000000001 0.02 0  0.57 0.02 0  0.58 0.02 0  0.59 0.02 0  0.6 0.02 0  0.61 0.02 0  0.62 0.02 0  0.63 0.02 0  0.64 0.02 0  0.65 0.02 0  0.66 0.02 0  0.67 0.02 0  0.68 0.02 0  0.6899999999999999 0.02 0  0.7 0.02 0  0.71 0.02 0  0.72 0.02 0  0.73 0.02 0  0.74 0.02 0  0.75 0.02 0  0.76 0.02 0  0.77 0.02 0  0.78 0.02 0  0.79 0.02 0  0.8 0.02 0  0.8100000000000001 0.02 0  0.82 0.02 0  0.83 0.02 0  0.84 0.02 0  0.85 0.02 0  0.86 0.02 0  0.87 0.02 0  0.88 0.02 0  0.89 0.02 0  0.9 0.02 0  0.91 0.02 0  0.92 0.02 0  0.93 0.02 0  0.9399999999999999 0.02 0  0.95 0.02 0  0.96 0.02 0  0.97 0.02 0  0.98 0.02 0  0.99 0.02 0  1 0.02 0  0 0.03 0  0.01 0.03 0  0.02 0.03 0  0.03 0.03 0  0.04 0.03 0  0.05 0.03 0  0.06 0.03 0  0.07000000000000001 0.03 0  0.08 0.03 0  0.09 0.03 0  0.1 0.03 0  0.11 0.03 0  0.12 0.03 0  0.13 0.03 0  0.14 0.03 0  0.15 0.03 0  0.16 0.03 0  0.17 0.03 0  0.18 0.03 0  0.19 0.03 0  0.2 0.03 0  0.21 0.03 0  0.22 0.03 0  0.23 0.03 0  0.24 0.03 0  0.25 0.03 0  0.26 0.03 0  0.27 0.03 0  0.28 0.03 0  0.29 0.03 0  0.3 0.03 0  0.31 0.03 0  0.32 0.03 0  0.33 0.03 0  0.34 0.03 0  0.35 0.03 0  0.36 0.03 0  0.37 0.03 0  0.38 0.03 0  0.39 0.03 0  0.4 0.03 0  0.41 0.03 0  0.42 0.03 0  0.43 0.03 0  0.44 0.03 0  0.45 0.03 0  0.46 0.03 0  0.47 0.03 0  0.48 0.03 0  0.49 0.03 0  0.5 0.03 0  0.51 0.03 0  0.52 0.03 0  0.53 0.03 0  0.54 0.03 0  0.55 0.03 0  0.5600000000000001 0.03 0  0.57 0.03 0  0.58 0.03 0  0.59 0.03 0  0.6 0.03 0  0.61 0.03 0  0.62 0.03 0  0.63 0.03 0  0.64 0.03 0  0.65 0.03 0  0.66 0.03 0  0.67 0.03 0  0.68 0.03 0  0.6899999999999999 0.03 0  0.7 0.03 0  0.71 0.03 0  0.72 0.03 0  0.73 0.03 0  0.74 0.03 0  0.75 0.03 0  0.76 0.03 0  0.77 0.03 0  0.78 0.03 0  0.79 0.03 0  0.8 0.03 0  0.8100000000000001 0.03 0  0.82 0.03 0  0.83 0.03 0  0.84 0.03 0  0.85 0.03 0  0.86 0.03 0  0.87 0.03 0  0.88 0.03 0  0.89 0.03 0  0.9 0.03 0  0.91 0.03 0  0.92 0.03 0  0.93 0.03 0  0.9399999999999999 0.03 0  0.95 0.03 0  0.96 0.03 0  0.97 0.03 0  0.98 0.03 0  0.99 0.03 0  1 0.03 0  0 0.04 0  0.01 0.04 0  0.02 0.04 0  0.03 0.04 0  0.04 0.04 0  0.05 0.04 0  0.06 0.04 0  0.07000000000000001 0.04 0  0.08 0.04 0  0.09 0.04 0  0.1 0.04 0  0.11 0.04 0  0.12 0.04 0  0.13 0.04 0  0.14 0.04 0  0.15 0.04 0  0.16 0.04 0  0.17 0.04 0  0.18 0.04 0  0.19 0.04 0  0.2 0.04 0  0.21 0.04 0  0.22 0.04 0  0.23 0.04 0  0.24 0.04 0  0.25 0.04 0  0.26 0.04 0  0.27 0.04 0  0.28 0.04 0  0.29 0.04 0  0.3 0.04 0  0.31 0.04 0  0.32 0.04 0  0.33 0.04 0  0.34 0.04 0  0.35 0.04 0  0.36 0.04 0  0.37 0.04 0  0.38 0.04 0  0.39 0.04 0  0.4 0.04 0  0.41 0.04 0  0.42 0.04 0  0.43 0.04 0  0.44 0.04 0  0.45 0.04 0  0.46 0.04 0  0.47 0.04 0  0.48 0.04 0  0.49 0.04 0  0.5 0.04 0  0.51 0.04 0  0.52 0.04 0  0.53 0.04 0  0.54 0.04 0  0.55 0.04 0  0.5600000000000001 0.04 0  0.57 0.04 0  0.58 0.04 0  0.59 0.04 0  0.6 0.04 0  0.61 0.04 0  0.62 0.04 0  0.63 0.04 0  0.64 0.04 0  0.65 0.04 0  0.66 0.04 0  0.67 0.04 0  0.68 0.04 0  0.6899999999999999 0.04 0  0.7 0.04 0  0.71 0.04 0  0.72 0.04 0  0.73 0.04 0  0.74 0.04 0  0.75 0.04 0  0.76 0.04 0  0.77 0.04 0  0.78 0.04 0  0.79 0.04 0  0.8 0.04 0  0.8100000000000001 0.04 0  0.82 0.04 0  0.83 0.04 0  0.84 0.04 0  0.85 0.04 0  0.86 0.04 0  0.87 0.04 0  0.88 0.04 0  0.89 0.04 0  0.9 0.04 0  0.91 0.04 0  0.92 0.04 0  0.93 0.04 0  0.9399999999999999 0.04 0  0.95 0.04 0  0.96 0.04 0  0.97 0.04 0  0.98 0.04 0  0.99 0.04 0  1 0.04 0  0 0.05 0  0.01 0.05 0  0.02 0.05 0  0.03 0.05 0  0.04 0.05 0  0.05 0.05 0  0.06 0.05 0  0.07000000000000001 0.05 0  0.08 0.05 0  0.09 0.05 0  0.1 0.05 0  0.11 0.05 0  0.12 0.05 0  0.13 0.05 0  0.14 0.05 0  0.15 0.05 0  0.16 0.05 0  0.17 0.05 0  0.18 0.05 0  0.19 0.05 0  0.2 0.05 0  0.21 0.05 0  0.22 0.05 0  0.23 0.05 0  0.24 0.05 0  0.25 0.05 0  0.26 0.05 0  0.27 0.05 0  0.28 0.05 0  0.29 0.05 0  0.3 0.05 0  0.31 0.05 0  0.32 0.05 0  0.33 0.05 0  0.34 0.05 0  0.35 0.05 0  0.36 0.05 0  0.37 0.05 0  0.38 0.05 0  0.39 0.05 0  0.4 0.05 0  0.41 0.05 0  0.42 0.05 0  0.43 0.05 0  0.44 0.05 0  0.45 0.05 0  0.46 0.05 0  0.47 0.05 0  0.48 0.05 0  0.49 0.05 0  0.5 0.05 0  0.51 0.05 0  0.52 0.05 0  0.53 0.05 0  0.54 0.05 0  0.55 0.05 0  0.5600000000000001 0.05 0  0.57 0.05 0  0.58 0.05 0  0.59 0.05 0  0.6 0.05 0  0.61 0.05 0  0.62 0.05 0  0.63 0.05 0  0.64 0.05 0  0.65 0.05 0  0.66 0.05 0  0.67 0.05 0  0.68 0.05 0  0.6899999999999999 0.05 0  0.7 0.05 0  0.71 0.05 0  0.72 0.05 0  0.73 0.05 0  0.74 0.05 0  0.75 0.05 0  0.76 0.05 0  0.77 0.05 0  0.78 0.05 0  0.79 0.05 0  0.8 0.05 0  0.8100000000000001 0.05 0  0.82 0.05 0  0.83 0.05 0  0.84 0.05 0  0.85 0.05 0  0.86 0.05 0  0.87 0.05 0  0.88 0.05 0  0.89 0.05 0  0.9 0.05 0  0.91 0.05 0  0.92 0.05 0  0.93 0.05 0  0.9399999999999999 0.05 0  0.95 0.05 0  0.96 0.05 0  0.97 0.05 0  0.98 0.05 0  0.99 0.05 0  1 0.05 0  0 0.06 0  0.01 0.06 0  0.02 0.06 0  0.03 0.06 0  0.04 0.06 0  0.05 0.06 0  0.06 0.06 0  0.07000000000000001 0.06 0  0.08 0.06 0  0.09 0.06 0  0.1 0.06 0  0.11 0.06 0  0.12 0.06 0  0.13 0.06 0  0.14 0.06 0  0.15 0.06 0  0.16 0.06 0  0.17 0.06 0  0.18 0.06 0  0.19 0.06 0  0.2 0.06 0  0.21 0.06 0  0.22 0.06 0  0.23 0.06 0  0.24 0.06 0  0.25 0.06 0  0.26 0.06 0  0.27 0.06 0  0.28 0.06 0  0.29 0.06 0  0.3 0.06 0  0.31 0.06 0  0.32 0.06 0  0.33 0.06 0  0.34 0.06 0  0.35 0.06 0  0.36 0.06 0  0.37 0.06 0  0.38 0.06 0  0.39 0.06 0  0.4 0.06 0  0.41 0.06 0  0.42 0.06 0  0.43 0.06 0  0.44 0.06 0  0.45 0.06 0  0.46 0.06 0  0.47 0.06 0  0.48 0.06 0  0.49 0.06 0  0.5 0.06 0  0.51 0.06 0  0.52 0.06 0  0.53 0.06 0  0.54 0.06 0  0.55 0.06 0  0.5600000000000001 0.06 0  0.57 0.06 0  0.58 0.06 0  0.59 0.06 0  0.6 0.06 0  0.61 0.06 0  0.62 0.06 0  0.63 0.06 0  0.64 0.06 0  0.65 0.06 0  0.66 0.06 0  0.67 0.06 0  0.68 0.06 0  0.6899999999999999 0.06 0  0.7 0.06 0  0.71 0.06 0  0.72 0.06 0  0.73 0.06 0  0.74 0.06 0  0.75 0.06 0  0.76 0.06 0  0.77 0.06 0  0.78 0.06 0  0.79 0.06 0  0.8 0.06 0  0.8100000000000001 0.06 0  0.82 0.06 0  0.83 0.06 0  0.84 0.06 0  0.85 0.06 0  0.86 0.06 0  0.87 0.06 0  0.88 0.06 0  0.89 0.06 0  0.9 0.06 0  0.91 0.06 0  0.92 0.06 0  0.93 0.06 0  0.9399999999999999 0.06 0  0.95 0.06 0  0.96 0.06 0  0.97 0.06 0  0.98 0.06 0  0.99 0.06 0  1 0.06 0  0 0.07000000000000001 0  0.01 0.07000000000000001 0  0.02 0.07000000000000001 0  0.03 0.07000000000000001 0  0.04 0.07000000000000001 0  0.05 0.07000000000000001 0  0.06 0.07000000000000001 0  0.07000000000000001 0.07000000000000001 0  0.08 0.07000000000000001 0  0.09 0.07000000000000001 0  0.1 0.07000000000000001 0  0.11 0.07000000000000001 0  0.12 0.07000000000000001 0  0.13 0.07000000000000001 0  0.14 0.07000000000000001 0  0.15 0.07000000000000001 0  0.16 0.07000000000000001 0  0.17 0.0700
[...]
<PointData  Scalars="f_17"> 
<DataArray  type="Float64"  Name="f_17"  format="ascii">0.0000000000000000e+00  5.0000000000000000e+01  5.0000000000000000e+01  5.0000000000000000e+01  5.0000000000000000e+01  5.0000000000000000e+01  5.0000000000000000e+01  5.0000000000000000e+01  5.0000000000000000e+01  5.0000000000000000e+01  5.0000000000000000e+01  5.0000000000000000e+01  5.0000000000000000e+01  5.0000000000000000e+01  5.0000000000000000e+01  5.0000000000000000e+01  5.0000000000000000e+01  5.0000000000000000e+01  5.0000000000000000e+01  5.0000000000000000e+01  5.0000000000000000e+01  5.0000000000000000e+01  5.0000000000000000e+01  5.0000000000000000e+01  5.0000000000000000e+01  5.0000000000000000e+01  5.0000000000000000e+01  5.0000000000000000e+01  5.0000000000000000e+01  5.0000000000000000e+01  5.0000000000000000e+01  5.0000000000000000e+01  5.0000000000000000e+01  5.0000000000000000e+01  5.0000000000000000e+01  5.0000000000000000e+01  5.0000000000000000e+01  5.0000000000000000e+01  5.0000000000000000e+01  5.0000000000000000e+01  5.0000000000000000e+01  5.0000000000000000e+01  5.0000000000000000e+01  5.0000000000000000e+01  5.0000000000000000e+01  5.0000000000000000e+01  5.0000000000000000e+01  5.0000000000000000e+01  5.0000000000000000e+01  5.0000000000000000e+01  5.0000000000000000e+01  5.0000000000000000e+01  5.0000000000000000e+01  5.0000000000000000e+01  5.0000000000000000e+01  5.0000000000000000e+01  5.0000000000000000e+01  5.0000000000000000e+01  5.0000000000000000e+01  5.0000000000000000e+01  5.0000000000000000e+01  5.0000000000000000e+01  5.0000000000000000e+01  5.0000000000000000e+01  5.0000000000000000e+01  5.0000000000000000e+01  5.0000000000000000e+01  5.0000000000000000e+01  5.0000000000000000e+01  5.0000000000000000e+01  5.0000000000000000e+01  5.0000000000000000e+01  5.0000000000000000e+01  5.0000000000000000e+01  5.0000000000000000e+01  5.0000000000000000e+01  5.0000000000000000e+01  5.0000000000000000e+01  5.0000000000000000e+01  5.0000000000000000e+01  5.0000000000000000e+01  5.0000000000000000e+01  5.0000000000000000e+01  5.0000000000000000e+01  5.0000000000000000e+01  5.0000000000000000e+01  5.0000000000000000e+01  5.0000000000000000e+01  5.0000000000000000e+01  5.0000000000000000e+01  5.0000000000000000e+01  5.0000000000000000e+01  5.0000000000000000e+01  5.0000000000000000e+01  5.0000000000000000e+01  5.0000000000000000e+01  5.0000000000000000e+01  5.0000000000000000e+01  5.0000000000000000e+01  5.0000000000000000e+01  0.0000000000000000e+00  0.0000000000000000e+00  2.4966866861215784e+01  3.5187405676600626e+01  3.9661096000429367e+01  4.2070407327919973e+01  4.3551921006817295e+01  4.4545652980535138e+01  4.5253321513883634e+01  4.5779507604480173e+01  4.6183602930503241e+01  4.6501762917570090e+01  4.6757231406905291e+01  4.6965621976927977e+01  4.7137807766516680e+01  4.7281592351319425e+01  4.7402721224853252e+01  4.7505518344292746e+01  4.7593300263610111e+01  4.7668653437209620e+01  4.7733624638229756e+01  4.7789854652418306e+01  4.7838674018275576e+01  4.7881172811503227e+01  4.7918252327732333e+01  4.7950663915999137e+01  4.7979038544164098e+01  4.8003909581156499e+01  4.8025730547974369e+01  4.8044889090776913e+01  4.8061718084797484e+01  4.8076504536112104e+01  4.8089496776479535e+01  4.8100910322783889e+01  4.8110932682533424e+01  4.8119727320553473e+01  4.8127436952692044e+01  4.8134186295327403e+01  4.8140084371414119e+01  4.8145226452375056e+01  4.8149695698637501e+01  4.8153564548803814e+01  4.8156895897422395e+01  4.8159744093431982e+01  4.8162155785080209e+01  4.8164170632098767e+01  4.8165821901864447e+01  4.8167136962969828e+01  4.8168137686901694e+01  4.8168840766245452e+01  4.8169257955895560e+01  4.8169396242070285e+01  4.8169257942433454e+01  4.8168840739256851e+01  4.8168137646258444e+01  4.8167136908481218e+01  4.8165821833278848e+01  4.8164170549105812e+01  4.8162155687313799e+01  4.8159743980473721e+01  4.8156895768805342e+01  4.8153564404017153e+01  4.8149695537131400e+01  4.8145226273566415e+01  4.8140084174692262e+01  4.8134186080060516e+01  4.8127436718234335e+01  4.8119727066252089e+01  4.8110932407736179e+01  4.8100910026846869e+01  4.8089496458775287e+01  4.8076504196037860e+01  4.8061717721783147e+01  4.8044888704293463e+01  4.8025730137541856e+01  4.8003909146351937e+01  4.7979038084629103e+01  4.7950663431446976e+01  4.7918251817954712e+01  4.7881172276376248e+01  4.7838673457764969e+01  4.7789854066583565e+01  4.7733624027227989e+01  4.7668652801297391e+01  4.7593299603144501e+01  4.7505517659731026e+01  4.7402720516750747e+01  4.7281591620325585e+01  4.7137807013369567e+01  4.6965621202446009e+01  4.6757230611976162e+01  4.6501762103136393e+01  4.6183602097542284e+01  4.5779506753976548e+01  4.5253320646787728e+01  4.4545652097693377e+01  4.3551920108836555e+01  4.2070406414844108e+01  3.9661095070769086e+01  3.5187404723600487e+01  2.4966865854430139e+01  0.0000000000000000e+00  0.0000000000000000e+00  1.4680200344919459e+01  2.4867745023018063e+01  3.1086752347703673e+01  3.4978416626301630e+01  3.7558989759225639e+01  3.9363953316643794e+01  4.0682247858906422e+01  4.1678605484842329e+01  4.2452335862119369e+01  4.3066354608386362e+01  4.3562254618366815e+01  4.3968548191152081e+01  4.4305395666300164e+01  4.4587436431221228e+01  4.4825548568624086e+01  4.5027979196231136e+01  4.5201091921504030e+01  4.5349873949309981e+01  4.5478288063563028e+01  4.5589521968103433e+01  4.5686168183386698e+01  4.5770356005618318e+01  4.5843849767338341e+01  4.5908123014362339e+01  4.5964415209148008e+01  4.6013775580056347e+01  4.6057097393750148e+01  4.6095145008108460e+01  4.6128575423094865e+01  4.6157955595605998e+01  4.6183776461771508e+01  4.6206464376928288e+01  4.6226390512925867e+01  4.6243878626387911e+01  4.6259211517513585e+01  4.6272636428184306e+01  4.6284369574346876e+01  4.6294599966443002e+01  4.6303492639853395e+01  4.6311191392582785e+01  4.6317821108032568e+01  4.6323489725402077e+01  4.6328289908088180e+01  4.6332300450696231e+01  4.6335587457382310e+01  4.6338205317803848e+01  4.6340197501632993e+01  4.6341597188133214e+01  4.6342427743504331e+01  4.6342703055410595e+01  4.6342427731170837e+01  4.6341597163406107e+01  4.6340197464392958e+01  4.6338205267873114e+01  4.6335587394526499e+01  4.6332300374626186e+01  4.6328289818462856e+01  4.6323489621831797e+01  4.6317820990082488e+01  4.6311191259777047e+01  4.6303492491680110e+01  4.6294599802359102e+01  4.6284369393783614e+01  4.6272636230553566e+01  4.6259211302213707e+01  4.6243878392810821e+01  4.6226390260463710e+01  4.6206464104980633e+01  4.6183776169752534e+01  4.6157955282952251e+01  4.6128575089272026e+01  4.6095144652618991e+01  4.6057097016140332e+01  4.6013775179922987e+01  4.5964414786144879e+01  4.5908122568205833e+01  4.5843849297813058e+01  4.5770355512581368e+01  4.5686167666771134e+01  4.5589521427920666e+01  4.5478287499904503e+01  4.5349873362346820e+01  4.5201091311485285e+01  4.5027978563480637e+01  4.4825547913534798e+01  4.4587435754247920e+01  4.4305394967948359e+01  4.3968547471964776e+01  4.3562253878906418e+01  4.3066353849211190e+01  4.2452335083752459e+01  4.1678604687728260e+01  4.0682247043348838e+01  3.9363952482706949e+01  3.7558988906566590e+01  3.4978415753861398e+01  3.1086751453147361e+01  2.4867744102231629e+01  1.4680199397770087e+01  0.0000000000000000e+00  0.0000000000000000e+00  1.0140660735841355e+01  1.8517177901637851e+01  2.4703468275856231e+01  2.9122148191352000e+01  3.2305301321618636e+01  3.4651496877191271e+01  3.6424869174424948e+01  3.7796795035643932e+01  3.8879836882655589e+01  3.9749664600554254e+01  4.0458478314834977e+01  4.1043206880672500e+01  4.1530594076657707e+01  4.1940424043577600e+01  4.2287615548127675e+01  4.2583613709859542e+01  4.2837335422334121e+01  4.3055824866871362e+01  4.3244716678515822e+01  4.3408568934553564e+01  4.3551106401060188e+01  4.3675400847430794e+01  4.3784006527323619e+01  4.3879063250006340e+01  4.3962375704623298e+01  4.4035475165269531e+01  4.4099667970415759e+01  4.4156073966355557e+01  4.4205657257420015e+01  4.4249251002373988e+01  4.4287577561533624e+01  4.4321264982225543e+01  4.4350860576849620e+01  4.4376842174301771e+01  4.4399627495320786e+01  4.4419582003785564e+01  4.4437025510790853e+01  4.4452237750498661e+01  4.4465463101944742e+01  4.4476914596002644e+01  4.4486777319205139e+01  4.4495211304352047e+01  4.4502353980464761e+01  4.4508322240688074e+01  4.4513214175424707e+01  4.4517110508724215e+01  4.4520075768283334e+01  4.4522159212982686e+01  4.4523395536401438e+01  4.4523805359979612e+01  4.4523395525243885e+01  4.4522159190611127e+01  4.4520075734585376e+01  4.4517110463532426e+01  4.4513214118518285e+01  4.4508322171794802e+01  4.4502353899263412e+01  4.4495211210475524e+01  4.4486777212243659e+01  4.4476914475507925e+01  4.4465462967434235e+01  4.4452237601460283e+01  4.4437025346688273e+01  4.4419581824063549e+01  4.4399627299411463e+01  4.4376841961630312e+01  4.4350860346841031e+01  4.4321264734310944e+01  4.4287577295157071e+01  4.4249250716999093e+01  4.4205656952536621e+01  4.4156073641486152e+01  4.4099667625121789e+01  4.4035474799157072e+01  4.3962375317348560e+01  4.3879062841280422e+01  4.3784006096916471e+01  4.3675400395174357e+01  4.3551105926850468e+01  4.3408568438351288e+01  4.3244716160346286e+01  4.3055824326822027e+01  4.2837334860550634e+01  4.2583613126539888e+01  4.2287614943513780e+01  4.1940423417943968e+01  4.1530593430297202e+01  4.1043206213877937e+01  4.0458477627875652e+01  3.9749663893646080e+01  3.8879836155922582e+01  3.7796794289067257e+01  3.6424868407773936e+01  3.4651496089928038e+01  3.2305300512766564e+01  2.9122147359335983e+01  2.4703467418423450e+01  1.8517177016352758e+01  1.0140659821637886e+01  0.0000000000000000e+00  0.0000000000000000e+00  7.6659154855431142e+00  1.4494783657810887e+01  2.0089037197999914e+01  2.4475411550320061e+01  2.7867707270607283e+01  3.0499229389153683e+01  3.2562345752626626e+01  3.4201201406704051e+01  3.5520414562164873e+01  3.6595538138092458e+01  3.7481520558781902e+01  3.8218819357716434e+01  3.8837651413462645e+01  3.9360918901487658e+01  3.9806229896612386e+01  4.0187306695601748e+01  4.0514979269418980e+01  4.0797895329068822e+01  4.1043034669801557e+01  4.1256086660913525e+01  4.1441730815205304e+01  4.1603847845006541e+01  4.1745680244526348e+01  4.1869955788094494e+01  4.1978983473755498e+01  4.2074728773274330e+01  4.2158873183378184e+01  4.2232861752954832e+01  4.2297941316850363e+01  4.2355191484626445e+01  4.2405549934574474e+01  4.2449833196211209e+01  4.2488753831470419e+01  4.2522934719991355e+01  4.2552920998972709e+01  4.2579190089944888e+01  4.2602160154077573e+01  4.2622197247438670e+01  4.2639621392920432e+01  4.2654711742641361e+01  4.2667710970742831e+01  4.2678829009551805e+01  4.2688246220503707e+01  4.2696116073808469e+01  4.2702567396681587e+01  4.2707706238334055e+01  4.2711617390259427e+01  4.2714365592234188e+01  4.2715996447503414e+01  4.2716537064565671e+01  4.2715996437561124e+01  4.2714365572295833e+01  4.2711617360217694e+01  4.2707706198029285e+01  4.2702567345903020e+01  4.2696116012296280e+01  4.2688246147951283e+01  4.2678828925608421e+01  4.2667710875016972e+01  4.2654711634704512e+01  4.2639621272310954e+01  4.2622197113666452e+01  4.2602160006628743e+01  4.2579189928287214e+01  4.2552920822560971e+01  4.2522934528273069e+01  4.2488753623891775e+01  4.2449832972223255e+01  4.2405549693639337e+01  4.2355191226223369e+01  4.2297941040481739e+01  4.2232861458152172e+01  4.2158872869707459e+01  4.2074728440341175e+01  4.1978983121209829e+01  4.1869955415634266e+01  4.1745679851900626e+01  4.1603847432017460e+01  4.1441730381708830e+01  4.1256086206819219e+01  4.1043034195070298e+01  4.0797894833708973e+01  4.0514978753480534e+01  4.0187306159168187e+01  3.9806229339789923e+01  3.9360918324391100e+01  3.8837650816197986e+01  3.8218818740359076e+01  3.7481519921349452e+01  3.6595537480510899e+01  3.5520413884226571e+01  3.4201200708015087e+01  3.2562345032540662e+01  3.0499228646691538e+01  2.7867706504366225e+01  2.4475410758398404e+01  2.0089036378006874e+01  1.4494782807039261e+01  7.6659146010356238e+00  0.0000000000000000e+00  0.0000000000000000e+00  6.1195175704431506e+00  1.1784578761700613e+01  1.6711777284786976e+01  2.0824940611550268e+01  2.4185471152575147e+01  2.6910254000681544e+01  2.9121271939615728e+01  3.0924775690973970e+01  3.2406526113570088e+01  3.3633499174708213e+01  3.4657374384066451e+01  3.5517980003459940e+01  3.6246148819252646e+01  3.6865927655794152e+01  3.7396237036703049e+01  3.7852103770092370e+01  3.8245574595445724e+01  3.8586395581512704e+01  3.8882520377219414e+01  3.9140493301977870e+01  3.9365740500936248e+01  3.9562793139269424e+01  3.9735459982969132e+01  3.9886961984111906e+01  4.0020038108995116e+01  4.0137029222750840e+01  4.0239945094331041e+01  4.0330518314675956e+01  4.0410247990804955e+01  4.0480435392904134e+01  4.0542213222178340e+01  4.0596569786077268e+01  4.0644369080151073e+01  4.0686367557588177e+01  4.0723228200638090e+01  4.0755532379669667e+01  4.0783789886075567e+01  4.0808447447596201e+01  4.0829895973710421e+01  4.0848476730622721e+01  4.0864486607145558e+01  4.0878182602202386e+01  4.0889785640066599e+01  4.0899483799500132e+01  4.0907435026652529e+01  4.0913769388135350e+01  4.0918590909480898e+01  4.0921979034728551e+01  4.0923989734764042e+01  4.0924656284930514e+01  4.0923989726068662e+01  4.0921979017285601e+01  4.0918590883186546e+01  4.0913769352834962e+01  4.0907434982141879e+01  4.0899483745527441e+01  4.0889785576334482e+01  4.0878182528370552e+01  4.0864486522833921e+01  4.0848476635414933e+01  4.0829895867157511e+01  4.0808447329220975e+01  4.0783789755377128e+01  4.0755532236128580e+01  4.0723228043721235e+01  4.0686367386754483e+01  4.0644368894856875e+01  4.0596569585782255e+01  4.0542213006351268e+01  4.0480435161028588e+01  4.0410247742385025e+01  4.0330518049241576e+01  4.0239944811443024e+01  4.0137028922005321e+01  4.0020037790027679e+01  3.9886961646600746e+01  3.9735459626637152e+01  3.9562792763885675e+01  3.9365740106315570e+01  3.9140492887979541e+01  3.8882519943743731e+01  3.8586395128495845e+01  3.8245574122852503e+01  3.7852103277906266e+01  3.7396236524913569e+01  3.6865927124380917e+01  3.6246148268165648e+01  3.5517979432595347e+01  3.4657373793237447e+01  3.3633498563609407e+01  3.2406525481734754e+01  3.0924775037722831e+01  2.9121271263996924e+01  2.6910253301403056e+01  2.4185470427935641e+01  2.0824939859382216e+01  1.6711776502426432e+01  1.1784577945955471e+01  6.1195167174090290e+00  0.0000000000000000e+00  0.0000000000000000e+00  5.0615818979605542e+00  9.8513430675963782e+00  1.4173510768145551e+01  1.7937950975369823e+01  2.1142356595703369e+01  2.3836036896803158e+01  2.6088826288958987e+01  2.7972260917823842e+01  2.9550827826777841e+01  3.0879175082703366e+01  3.2002196106897500e+01  3.2956231879873471e+01  3.3770539743558295e+01  3.4468672069896598e+01  3.5069646693709878e+01  3.5588894675461539e+01  3.6039009954972244e+01  3.6430335787047881e+01  3.6771421652764197e+01  3.7069379307257435e+01  3.7330160976827557e+01  3.7558777652041819e+01  3.7759471266085384e+01  3.7935851280397912e+01  3.8091003689221473e+01  3.8227578547892421e+01  3.8347860688876118e+01  3.8453827202212324e+01  3.8547194435513653e+01  3.8629456646258340e+01  3.8701917965785647e+01  3.8765718972839529e+01  3.8821858896975968e+01  3.8871214258039920e+01  3.8914554581865133e+01  3.8952555702894117e+01  3.8985811062948557e+01  3.9014841335432720e+01  3.9040102640921930e+01  3.9061993569652635e+01  3.9080861186042725e+01  3.9097006157841719e+01  3.9110687126157828e+01  3.9122124411106832e+01  3.9131503130160631e+01  3.9138975791624965e+01  3.9144664413403085e+01  3.9148662206789972e+01  3.9151034856069465e+01  3.9151821416806463e+01  3.9151034848645317e+01  3.9148662191890367e+01  3.9144664390925897e+01  3.9138975761417882e+01  3.9131503092022641e+01  3.9122124364789855e+01  3.9110687071368638e+01  3.9097006094244698e+01  3.9080861113262543e+01  3.9061993487277661e+01  3.9040102548507697e+01  3.9014841232506484e+01  3.8985810949013199e+01  3.8952555577433074e+01  3.8914554444347424e+01  3.8871214107925198e+01  3.8821858733720056e+01  3.8765718795899879e+01  3.8701917774626963e+01  3.8629456440357984e+01  3.8547194214367089e+01  3.8453826965338152e+01  3.8347860435820841e+01  3.8227578278234631e+01  3.8091003402575431e+01  3.7935850976416276e+01  3.7759470944461007e+01  3.7558777312508425e+01  3.7330160619158931e+01  3.7069378931265121e+01  3.6771421258293515e+01  3.6430335373971715e+01  3.6039009523182735e+01  3.5588894224859089e+01  3.5069646224189142e+01  3.4468671581329382e+01  3.3770539235772418e+01  3.2956231352627547e+01  3.2002195559850733e+01  3.0879174515379859e+01  2.9550827238524835e+01  2.7972260307763229e+01  2.6088825655933078e+01  2.3836036239315277e+01  2.1142355911857365e+01  1.7937950262811796e+01  1.4173510024003988e+01  9.8513422883959585e+00  5.0615810794581328e+00  0.0000000000000000e+00  0.0000000000000000e+00  4.2905167790779499e+00  8.4063888973726506e+00  1.2210481983124001e+01  1.5622578413735289e+01  1.8617008340829727e+01  2.1207493784097867e+01  2.3429957347801579e+01  2.5329216829998259e+01  2.6950760008643016e+01  2.8336543297232659e+01  2.9523340407296356e+01  3.0542482464266968e+01  3.1420255436431159e+01  3.2178545071738576e+01  3.2835522691078268e+01  3.3406279285263693e+01  3.3903374606605539e+01  3.4337296422471169e+01  3.4716837373355453e+01  3.5049401082034201e+01  3.5341249602921728e+01  3.5597703172202785e+01  3.5823301583823984e+01  3.6021934858929349e+01  3.6196949393274181e+01  3.6351234517233088e+01  3.6487293383299061e+01  3.6607301279373935e+01  3.6713153819122958e+01  3.6806506950910467e+01  3.6888810326254699e+01  3.6961335254091374e+01  3.7025198219743622e+01  3.7081380752597795e+01  3.7130746272533202e+01  3.7174054423160349e+01  3.7211973302912909e+01  3.7245089927602749e+01  3.7273919195987013e+01  3.7298911579944281e+01  3.7320459720468243e+01  3.7338904077870581e+01  3.7354537757777507e+01  3.7367610612470564e+01  3.7378332698886894e+01  3.7386877159375572e+01  3.7393382578479788e+01  3.7397954858066527e+01  3.7400668643645623e+01  3.7401568326350869e+01  3.7400668637510556e+01  3.7397954845745105e+01  3.7393382559869835e+01  3.7386877134324862e+01  3.7378332667194201e+01  3.7367610573887454e+01  3.7354537712010078e+01  3.7338904024582199e+01  3.7320459659282058e+01  3.7298911510446345e+01  3.7273919117729953e+01  3.7245089840109777e+01  3.7211973205681936e+01  3.7174054315668521e+01  3.7130746154241912e+01  3.7081380622957717e+01  3.7025198078199928e+01  3.6961335100089158e+01  3.6888810159244393e+01  3.6806506770353415e+01  3.6713153624496528e+01  3.6607301070176462e+01  3.6487293159054573e+01  3.6351234277495301e+01  3.6196949137629964e+01  3.6021934587001240e+01  3.5823301295271705e+01  3.5597702866723829e+01  3.5341249280250025e+01  3.5049400741937497e+01  3.4716837015630951e+01  3.4337296046938739e+01  3.3903374213098779e+01  3.3406278873618383e+01  3.2835522261117724e+01  3.2178544623255895e+01  3.1420254969167605e+01  3.0542481977886407e+01  2.9523339901355296e+01  2.8336542771145439e+01  2.6950759461641706e+01  2.5329216261087691e+01  2.3429956755709686e+01  2.1207493167222101e+01  1.8617007697181300e+01  1.5622577740880638e+01  1.2210481278119461e+01  8.4063881566816185e+00  4.2905159984578196e+00  0.0000000000000000e+00  0.0000000000000000e+00  3.7018627626360896e+00  7.2852269862753758e+00  1.0651677713381744e+01  1.3735161489309560e+01  1.6503778258652513e+01  1.8953808832467118e+01  2.1100683861942002e+01  2.2970498913465068e+01  2.4593679118160523e+01  2.6000944852738225e+01  2.7221089742888992e+01  2.8279971526799855e+01  2.9200226639261238e+01  3.0001373333449042e+01  3.0700096576328530e+01  3.1310596934647133e+01  3.1844941413010211e+01  3.2313386839350898e+01  3.2724664450887865e+01  3.3086223740878104e+01  3.3404438127022722e