<?xml version="1.0"?>
<VTKFile type="UnstructuredGrid"  version="0.1"  >
<UnstructuredGrid>
<Piece  NumberOfPoints="10201" NumberOfCells="20000">
<Points>
<DataArray  type="Float64"  NumberOfComponents="3"  format="ascii">0 0 0  0.01 0 0  0.02 0 0  0.03 0 0  0.04 0 0  0.05 0 0  0.06 0 0  0.07000000000000001 0 0  0.08 0 0  0.09 0 0  0.1 0 0  0.11 0 0  0.12 0 0  0.13 0 0  0.14 0 0  0.15 0 0  0.16 0 0  0.17 0 0  0.18 0 0  0.19 0 0  0.2 0 0  0.21 0 0  0.22 0 0  0.23 0 0  0.24 0 0  0.25 0 0  0.26 0 0  0.27 0 0  0.28 0 0  0.29 0 0  0.3 0 0  0.31 0 0  0.32 0 0  0.33 0 0  0.34 0 0  0.35 0 0  0.36 0 0  0.37 0 0  0.38 0 0  0.39 0 0  0.4 0 0  0.41 0 0  0.42 0 0  0.43 0 0  0.44 0 0  0.45 0 0  0.46 0 0  0.47 0 0  0.48 0 0  0.49 0 0  0.5 0 0  0.51 0 0  0.52 0 0  0.53 0 0  0.54 0 0  0.55 0 0  0.5600000000000001 0 0  0.57 0 0  0.58 0 0  0.59 0 0  0.6 0 0  0.61 0 0  0.62 0 0  0.63 0 0  0.64 0 0  0.65 0 0  0.66 0 0  0.67 0 0  0.68 0 0  0.6899999999999999 0 0  0.7 0 0  0.71 0 0  0.72 0 0  0.73 0 0  0.74 0 0  0.75 0 0  0.76 0 0  0.77 0 0  0.78 0 0  0.79 0 0  0.8 0 0  0.8100000000000001 0 0  0.82 0 0  0.83 0 0  0.84 0 0  0.85 0 0  0.86 0 0  0.87 0 0  0.88 0 0  0.89 0 0  0.9 0 0  0.91 0 0  0.92 0 0  0.93 0 0  0.9399999999999999 0 0  0.95 0 0  0.96 0 0  0.97 0 0  0.98 0 0  0.99 0 0  1 0 0  0 0.01 0  0.01 0.01 0  0.02 0.01 0  0.03 0.01 0  0.04 0.01 0  0.05 0.01 0  0.06 0.01 0  0.07000000000000001 0.01 0  0.08 0.01 0  0.09 0.01 0  0.1 0.01 0  0.11 0.01 0  0.12 0.01 0  0.13 0.01 0  0.14 0.01 0  0.15 0.01 0  0.16 0.01 0  0.17 0.01 0  0.18 0.01 0  0.19 0.01 0  0.2 0.01 0  0.21 0.01 0  0.22 0.01 0  0.23 0.01 0  0.24 0.01 0  0.25 0.01 0  0.26 0.01 0  0.27 0.01 0  0.28 0.01 0  0.29 0.01 0  0.3 0.01 0  0.31 0.01 0  0.32 0.01 0  0.33 0.01 0  0.34 0.01 0  0.35 0.01 0  0.36 0.01 0  0.37 0.01 0  0.38 0.01 0  0.39 0.01 0  0.4 0.01 0  0.41 0.01 0  0.42 0.01 0  0.43 0.01 0  0.44 0.01 0  0.45 0.01 0  0.46 0.01 0  0.47 0.01 0  0.48 0.01 0  0.49 0.01 0  0.5 0.01 0  0.51 0.01 0  0.52 0.01 0  0.53 0.01 0  0.54 0.01 0  0.55 0.01 0  0.5600000000000001 0.01 0  0.57 0.01 0  0.58 0.01 0  0.59 0.01 0  0.6 0.01 0  0.61 0.01 0  0.62 0.01 0  0.63 0.01 0  0.64 0.01 0  0.65 0.01 0  0.66 0.01 0  0.67 0.01 0  0.68 0.01 0  0.6899999999999999 0.01 0  0.7 0.01 0  0.71 0.01 0  0.72 0.01 0  0.73 0.01 0  0.74 0.01 0  0.75 0.01 0  0.76 0.01 0  0.77 0.01 0  0.78 0.01 0  0.79 0.01 0  0.8 0.01 0  0.8100000000000001 0.01 0  0.82 0.01 0  0.83 0.01 0  0.84 0.01 0  0.85 0.01 0  0.86 0.01 0  0.87 0.01 0  0.88 0.01 0  0.89 0.01 0  0.9 0.01 0  0.91 0.01 0  0.92 0.01 0  0.93 0.01 0  0.9399999999999999 0.01 0  0.95 0.01 0  0.96 0.01 0  0.97 0.01 0  0.98 0.01 0  0.99 0.01 0  1 0.01 0  0 0.02 0  0.01 0.02 0  0.02 0.02 0  0.03 0.02 0  0.04 0.02 0  0.05 0.02 0  0.06 0.02 0  0.07000000000000001 0.02 0  0.08 0.02 0  0.09 0.02 0  0.1 0.02 0  0.11 0.02 0  0.12 0.02 0  0.13 0.02 0  0.14 0.02 0  0.15 0.02 0  0.16 0.02 0  0.17 0.02 0  0.18 0.02 0  0.19 0.02 0  0.2 0.02 0  0.21 0.02 0  0.22 0.02 0  0.23 0.02 0  0.24 0.02 0  0.25 0.02 0  0.26 0.02 0  0.27 0.02 0  0.28 0.02 0  0.29 0.02 0  0.3 0.02 0  0.31 0.02 0  0.32 0.02 0  0.33 0.02 0  0.34 0.02 0  0.35 0.02 0  0.36 0.02 0  0.37 0.02 0  0.38 0.02 0  0.39 0.02 0  0.4 0.02 0  0.41 0.02 0  0.42 0.02 0  0.43 0.02 0  0.44 0.02 0  0.45 0.02 0  0.46 0.02 0  0.47 0.02 0  0.48 0.02 0  0.49 0.02 0  0.5 0.02 0  0.51 0.02 0  0.52 0.02 0  0.53 0.02 0  0.54 0.02 0  0.55 0.02 0  0.5600000000000001 0.02 0  0.57 0.02 0  0.58 0.02 0  0.59 0.02 0  0.6 0.02 0  0.61 0.02 0  0.62 0.02 0  0.63 0.02 0  0.64 0.02 0  0.65 0.02 0  0.66 0.02 0  0.67 0.02 0  0.68 0.02 0  0.6899999999999999 0.02 0  0.7 0.02 0  0.71 0.02 0  0.72 0.02 0  0.73 0.02 0  0.74 0.02 0  0.75 0.02 0  0.76 0.02 0  0.77 0.02 0  0.78 0.02 0  0.79 0.02 0  0.8 0.02 0  0.8100000000000001 0.02 0  0.82 0.02 0  0.83 0.02 0  0.84 0.02 0  0.85 0.02 0  0.86 0.02 0  0.87 0.02 0  0.88 0.02 0  0.89 0.02 0  0.9 0.02 0  0.91 0.02 0  0.92 0.02 0  0.93 0.02 0  0.9399999999999999 0.02 0  0.95 0.02 0  0.96 0.02 0  0.97 0.02 0  0.98 0.02 0  0.99 0.02 0  1 0.02 0  0 0.03 0  0.01 0.03 0  0.02 0.03 0  0.03 0.03 0  0.04 0.03 0  0.05 0.03 0  0.06 0.03 0  0.07000000000000001 0.03 0  0.08 0.03 0  0.09 0.03 0  0.1 0.03 0  0.11 0.03 0  0.12 0.03 0  0.13 0.03 0  0.14 0.03 0  0.15 0.03 0  0.16 0.03 0  0.17 0.03 0  0.18 0.03 0  0.19 0.03 0  0.2 0.03 0  0.21 0.03 0  0.22 0.03 0  0.23 0.03 0  0.24 0.03 0  0.25 0.03 0  0.26 0.03 0  0.27 0.03 0  0.28 0.03 0  0.29 0.03 0  0.3 0.03 0  0.31 0.03 0  0.32 0.03 0  0.33 0.03 0  0.34 0.03 0  0.35 0.03 0  0.36 0.03 0  0.37 0.03 0  0.38 0.03 0  0.39 0.03 0  0.4 0.03 0  0.41 0.03 0  0.42 0.03 0  0.43 0.03 0  0.44 0.03 0  0.45 0.03 0  0.46 0.03 0  0.47 0.03 0  0.48 0.03 0  0.49 0.03 0  0.5 0.03 0  0.51 0.03 0  0.52 0.03 0  0.53 0.03 0  0.54 0.03 0  0.55 0.03 0  0.5600000000000001 0.03 0  0.57 0.03 0  0.58 0.03 0  0.59 0.03 0  0.6 0.03 0  0.61 0.03 0  0.62 0.03 0  0.63 0.03 0  0.64 0.03 0  0.65 0.03 0  0.66 0.03 0  0.67 0.03 0  0.68 0.03 0  0.6899999999999999 0.03 0  0.7 0.03 0  0.71 0.03 0  0.72 0.03 0  0.73 0.03 0  0.74 0.03 0  0.75 0.03 0  0.76 0.03 0  0.77 0.03 0  0.78 0.03 0  0.79 0.03 0  0.8 0.03 0  0.8100000000000001 0.03 0  0.82 0.03 0  0.83 0.03 0  0.84 0.03 0  0.85 0.03 0  0.86 0.03 0  0.87 0.03 0  0.88 0.03 0  0.89 0.03 0  0.9 0.03 0  0.91 0.03 0  0.92 0.03 0  0.93 0.03 0  0.9399999999999999 0.03 0  0.95 0.03 0  0.96 0.03 0  0.97 0.03 0  0.98 0.03 0  0.99 0.03 0  1 0.03 0  0 0.04 0  0.01 0.04 0  0.02 0.04 0  0.03 0.04 0  0.04 0.04 0  0.05 0.04 0  0.06 0.04 0  0.07000000000000001 0.04 0  0.08 0.04 0  0.09 0.04 0  0.1 0.04 0  0.11 0.04 0  0.12 0.04 0  0.13 0.04 0  0.14 0.04 0  0.15 0.04 0  0.16 0.04 0  0.17 0.04 0  0.18 0.04 0  0.19 0.04 0  0.2 0.04 0  0.21 0.04 0  0.22 0.04 0  0.23 0.04 0  0.24 0.04 0  0.25 0.04 0  0.26 0.04 0  0.27 0.04 0  0.28 0.04 0  0.29 0.04 0  0.3 0.04 0  0.31 0.04 0  0.32 0.04 0  0.33 0.04 0  0.34 0.04 0  0.35 0.04 0  0.36 0.04 0  0.37 0.04 0  0.38 0.04 0  0.39 0.04 0  0.4 0.04 0  0.41 0.04 0  0.42 0.04 0  0.43 0.04 0  0.44 0.04 0  0.45 0.04 0  0.46 0.04 0  0.47 0.04 0  0.48 0.04 0  0.49 0.04 0  0.5 0.04 0  0.51 0.04 0  0.52 0.04 0  0.53 0.04 0  0.54 0.04 0  0.55 0.04 0  0.5600000000000001 0.04 0  0.57 0.04 0  0.58 0.04 0  0.59 0.04 0  0.6 0.04 0  0.61 0.04 0  0.62 0.04 0  0.63 0.04 0  0.64 0.04 0  0.65 0.04 0  0.66 0.04 0  0.67 0.04 0  0.68 0.04 0  0.6899999999999999 0.04 0  0.7 0.04 0  0.71 0.04 0  0.72 0.04 0  0.73 0.04 0  0.74 0.04 0  0.75 0.04 0  0.76 0.04 0  0.77 0.04 0  0.78 0.04 0  0.79 0.04 0  0.8 0.04 0  0.8100000000000001 0.04 0  0.82 0.04 0  0.83 0.04 0  0.84 0.04 0  0.85 0.04 0  0.86 0.04 0  0.87 0.04 0  0.88 0.04 0  0.89 0.04 0  0.9 0.04 0  0.91 0.04 0  0.92 0.04 0  0.93 0.04 0  0.9399999999999999 0.04 0  0.95 0.04 0  0.96 0.04 0  0.97 0.04 0  0.98 0.04 0  0.99 0.04 0  1 0.04 0  0 0.05 0  0.01 0.05 0  0.02 0.05 0  0.03 0.05 0  0.04 0.05 0  0.05 0.05 0  0.06 0.05 0  0.07000000000000001 0.05 0  0.08 0.05 0  0.09 0.05 0  0.1 0.05 0  0.11 0.05 0  0.12 0.05 0  0.13 0.05 0  0.14 0.05 0  0.15 0.05 0  0.16 0.05 0  0.17 0.05 0  0.18 0.05 0  0.19 0.05 0  0.2 0.05 0  0.21 0.05 0  0.22 0.05 0  0.23 0.05 0  0.24 0.05 0  0.25 0.05 0  0.26 0.05 0  0.27 0.05 0  0.28 0.05 0  0.29 0.05 0  0.3 0.05 0  0.31 0.05 0  0.32 0.05 0  0.33 0.05 0  0.34 0.05 0  0.35 0.05 0  0.36 0.05 0  0.37 0.05 0  0.38 0.05 0  0.39 0.05 0  0.4 0.05 0  0.41 0.05 0  0.42 0.05 0  0.43 0.05 0  0.44 0.05 0  0.45 0.05 0  0.46 0.05 0  0.47 0.05 0  0.48 0.05 0  0.49 0.05 0  0.5 0.05 0  0.51 0.05 0  0.52 0.05 0  0.53 0.05 0  0.54 0.05 0  0.55 0.05 0  0.5600000000000001 0.05 0  0.57 0.05 0  0.58 0.05 0  0.59 0.05 0  0.6 0.05 0  0.61 0.05 0  0.62 0.05 0  0.63 0.05 0  0.64 0.05 0  0.65 0.05 0  0.66 0.05 0  0.67 0.05 0  0.68 0.05 0  0.6899999999999999 0.05 0  0.7 0.05 0  0.71 0.05 0  0.72 0.05 0  0.73 0.05 0  0.74 0.05 0  0.75 0.05 0  0.76 0.05 0  0.77 0.05 0  0.78 0.05 0  0.79 0.05 0  0.8 0.05 0  0.8100000000000001 0.05 0  0.82 0.05 0  0.83 0.05 0  0.84 0.05 0  0.85 0.05 0  0.86 0.05 0  0.87 0.05 0  0.88 0.05 0  0.89 0.05 0  0.9 0.05 0  0.91 0.05 0  0.92 0.05 0  0.93 0.05 0  0.9399999999999999 0.05 0  0.95 0.05 0  0.96 0.05 0  0.97 0.05 0  0.98 0.05 0  0.99 0.05 0  1 0.05 0  0 0.06 0  0.01 0.06 0  0.02 0.06 0  0.03 0.06 0  0.04 0.06 0  0.05 0.06 0  0.06 0.06 0  0.07000000000000001 0.06 0  0.08 0.06 0  0.09 0.06 0  0.1 0.06 0  0.11 0.06 0  0.12 0.06 0  0.13 0.06 0  0.14 0.06 0  0.15 0.06 0  0.16 0.06 0  0.17 0.06 0  0.18 0.06 0  0.19 0.06 0  0.2 0.06 0  0.21 0.06 0  0.22 0.06 0  0.23 0.06 0  0.24 0.06 0  0.25 0.06 0  0.26 0.06 0  0.27 0.06 0  0.28 0.06 0  0.29 0.06 0  0.3 0.06 0  0.31 0.06 0  0.32 0.06 0  0.33 0.06 0  0.34 0.06 0  0.35 0.06 0  0.36 0.06 0  0.37 0.06 0  0.38 0.06 0  0.39 0.06 0  0.4 0.06 0  0.41 0.06 0  0.42 0.06 0  0.43 0.06 0  0.44 0.06 0  0.45 0.06 0  0.46 0.06 0  0.47 0.06 0  0.48 0.06 0  0.49 0.06 0  0.5 0.06 0  0.51 0.06 0  0.52 0.06 0  0.53 0.06 0  0.54 0.06 0  0.55 0.06 0  0.5600000000000001 0.06 0  0.57 0.06 0  0.58 0.06 0  0.59 0.06 0  0.6 0.06 0  0.61 0.06 0  0.62 0.06 0  0.63 0.06 0  0.64 0.06 0  0.65 0.06 0  0.66 0.06 0  0.67 0.06 0  0.68 0.06 0  0.6899999999999999 0.06 0  0.7 0.06 0  0.71 0.06 0  0.72 0.06 0  0.73 0.06 0  0.74 0.06 0  0.75 0.06 0  0.76 0.06 0  0.77 0.06 0  0.78 0.06 0  0.79 0.06 0  0.8 0.06 0  0.8100000000000001 0.06 0  0.82 0.06 0  0.83 0.06 0  0.84 0.06 0  0.85 0.06 0  0.86 0.06 0  0.87 0.06 0  0.88 0.06 0  0.89 0.06 0  0.9 0.06 0  0.91 0.06 0  0.92 0.06 0  0.93 0.06 0  0.9399999999999999 0.06 0  0.95 0.06 0  0.96 0.06 0  0.97 0.06 0  0.98 0.06 0  0.99 0.06 0  1 0.06 0  0 0.07000000000000001 0  0.01 0.07000000000000001 0  0.02 0.07000000000000001 0  0.03 0.07000000000000001 0  0.04 0.07000000000000001 0  0.05 0.07000000000000001 0  0.06 0.07000000000000001 0  0.07000000000000001 0.07000000000000001 0  0.08 0.07000000000000001 0  0.09 0.07000000000000001 0  0.1 0.07000000000000001 0  0.11 0.07000000000000001 0  0.12 0.07000000000000001 0  0.13 0.07000000000000001 0  0.14 0.07000000000000001 0  0.15 0.07000000000000001 0  0.16 0.07000000000000001 0  0.17 0.0700
[...]
<PointData  Scalars="f_17"> 
<DataArray  type="Float64"  Name="f_17"  format="ascii">0.0000000000000000e+00  5.0000000000000000e+01  5.0000000000000000e+01  5.0000000000000000e+01  5.0000000000000000e+01  5.0000000000000000e+01  5.0000000000000000e+01  5.0000000000000000e+01  5.0000000000000000e+01  5.0000000000000000e+01  5.0000000000000000e+01  5.0000000000000000e+01  5.0000000000000000e+01  5.0000000000000000e+01  5.0000000000000000e+01  5.0000000000000000e+01  5.0000000000000000e+01  5.0000000000000000e+01  5.0000000000000000e+01  5.0000000000000000e+01  5.0000000000000000e+01  5.0000000000000000e+01  5.0000000000000000e+01  5.0000000000000000e+01  5.0000000000000000e+01  5.0000000000000000e+01  5.0000000000000000e+01  5.0000000000000000e+01  5.0000000000000000e+01  5.0000000000000000e+01  5.0000000000000000e+01  5.0000000000000000e+01  5.0000000000000000e+01  5.0000000000000000e+01  5.0000000000000000e+01  5.0000000000000000e+01  5.0000000000000000e+01  5.0000000000000000e+01  5.0000000000000000e+01  5.0000000000000000e+01  5.0000000000000000e+01  5.0000000000000000e+01  5.0000000000000000e+01  5.0000000000000000e+01  5.0000000000000000e+01  5.0000000000000000e+01  5.0000000000000000e+01  5.0000000000000000e+01  5.0000000000000000e+01  5.0000000000000000e+01  5.0000000000000000e+01  5.0000000000000000e+01  5.0000000000000000e+01  5.0000000000000000e+01  5.0000000000000000e+01  5.0000000000000000e+01  5.0000000000000000e+01  5.0000000000000000e+01  5.0000000000000000e+01  5.0000000000000000e+01  5.0000000000000000e+01  5.0000000000000000e+01  5.0000000000000000e+01  5.0000000000000000e+01  5.0000000000000000e+01  5.0000000000000000e+01  5.0000000000000000e+01  5.0000000000000000e+01  5.0000000000000000e+01  5.0000000000000000e+01  5.0000000000000000e+01  5.0000000000000000e+01  5.0000000000000000e+01  5.0000000000000000e+01  5.0000000000000000e+01  5.0000000000000000e+01  5.0000000000000000e+01  5.0000000000000000e+01  5.0000000000000000e+01  5.0000000000000000e+01  5.0000000000000000e+01  5.0000000000000000e+01  5.0000000000000000e+01  5.0000000000000000e+01  5.0000000000000000e+01  5.0000000000000000e+01  5.0000000000000000e+01  5.0000000000000000e+01  5.0000000000000000e+01  5.0000000000000000e+01  5.0000000000000000e+01  5.0000000000000000e+01  5.0000000000000000e+01  5.0000000000000000e+01  5.0000000000000000e+01  5.0000000000000000e+01  5.0000000000000000e+01  5.0000000000000000e+01  5.0000000000000000e+01  5.0000000000000000e+01  0.0000000000000000e+00  0.0000000000000000e+00  2.4853124524786015e+01  3.4960592075173281e+01  3.9322559328881383e+01  4.1622133475441807e+01  4.2996492246562539e+01  4.3886195315236691e+01  4.4493442848264060e+01  4.4923229078171389e+01  4.5235285856491920e+01  4.5466033764540313e+01  4.5638907139534375e+01  4.5769637843082023e+01  4.5869149318129217e+01  4.5945233133180757e+01  4.6003567189367388e+01  4.6048359675100507e+01  4.6082770937692594e+01  4.6109198539724787e+01  4.6129475177768121e+01  4.6145009412403915e+01  4.6156887824187315e+01  4.6165950491053209e+01  4.6172847586960785e+01  4.6178082341472027e+01  4.6182043962214188e+01  4.6185033051329491e+01  4.6187281331863595e+01  4.6188967012384325e+01  4.6190226778610061e+01  4.6191165159544212e+01  4.6191861840646652e+01  4.6192377367244674e+01  4.6192757584087531e+01  4.6193037082604832e+01  4.6193241869873695e+01  4.6193391428281657e+01  4.6193500299379764e+01  4.6193579297302179e+01  4.6193636434773424e+01  4.6193677626942780e+01  4.6193707224134975e+01  4.6193728413374707e+01  4.6193743519637728e+01  4.6193754230752432e+01  4.6193761764332613e+01  4.6193766990771536e+01  4.6193770522910143e+01  4.6193772780310738e+01  4.6193774033946923e+01  4.6193774435429582e+01  4.6193774033503928e+01  4.6193772779378087e+01  4.6193770521390086e+01  4.6193766988506916e+01  4.6193761761093029e+01  4.6193754226214651e+01  4.6193743513359294e+01  4.6193728404758403e+01  4.6193707212382911e+01  4.6193677610997113e+01  4.6193636413241713e+01  4.6193579268362683e+01  4.6193500260664599e+01  4.6193391376732151e+01  4.6193241801564909e+01  4.6193036992533855e+01  4.6192757465922085e+01  4.6192377213027953e+01  4.6191861640457333e+01  4.6191164901109673e+01  4.6190226446876849e+01  4.6188966589050786e+01  4.6187280794886604e+01  4.6185032374421212e+01  4.6182043114352524e+01  4.6178081286455964e+01  4.6172846283049722e+01  4.6165948890736175e+01  4.6156885874134588e+01  4.6145007053658254e+01  4.6129472346233207e+01  4.6109195167002405e+01  4.6082766952310529e+01  4.6048355004154971e+01  4.6003561760574804e+01  4.5945226877299568e+01  4.5869142171667470e+01  4.5769629751156458e+01  4.5638898058688753e+01  4.5466023665274982e+01  4.5235274725189115e+01  4.4923216918029389e+01  4.4493429678738494e+01  4.3886181169253838e+01  4.2996477164144956e+01  4.1622117490368915e+01  3.9322542437231874e+01  3.4960574138070875e+01  2.4853104848668142e+01  0.0000000000000000e+00  0.0000000000000000e+00  1.4454746444926734e+01  2.4418176155894301e+01  3.0415735391130443e+01  3.4089880796929336e+01  3.6458044583605236e+01  3.8056784543271000e+01  3.9175995294764306e+01  3.9981227313652319e+01  4.0572464259986091e+01  4.1013147467383654e+01  4.1345247946240683e+01  4.1597513313039762e+01  4.1790204759661549e+01  4.1937939230697147e+01  4.2051462336044878e+01  4.2138793311066905e+01  4.2205987749816423e+01  4.2257660026460115e+01  4.2297350099058100e+01  4.2327786761597046e+01  4.2351080231645049e+01  4.2368865376604731e+01  4.2382409709366435e+01  4.2392695741872252e+01  4.2400484346577251e+01  4.2406363835633123e+01  4.2410788160719981e+01  4.2414106738357177e+01  4.2416587775829413e+01  4.2418436522422191e+01  4.2419809542034727e+01  4.2420825858960534e+01  4.2421575643892332e+01  4.2422126965385623e+01  4.2422531021758466e+01  4.2422826181829116e+01  4.2423041094421812e+01  4.2423197072155205e+01  4.2423309911667999e+01  4.2423391277858720e+01  4.2423449752163016e+01  4.2423491622971795e+01  4.2423521478899893e+01  4.2423542651862050e+01  4.2423557546059008e+01  4.2423567880447344e+01  4.2423574865561008e+01  4.2423579330288156e+01  4.2423581810039018e+01  4.2423582604415770e+01  4.2423581809769431e+01  4.2423579329718578e+01  4.2423574864627632e+01  4.2423567879047134e+01  4.2423557544039767e+01  4.2423542649008375e+01  4.2423521474914359e+01  4.2423491617449052e+01  4.2423449744555853e+01  4.2423391267434091e+01  4.2423309897450849e+01  4.2423197052856516e+01  4.2423041068348134e+01  4.2422826146770127e+01  4.2422530974847817e+01  4.2422126902931701e+01  4.2421575561174258e+01  4.2420825749985624e+01  4.2419809399254795e+01  4.2418436336407055e+01  4.2416587534897971e+01  4.2414106428170122e+01  4.2410787763842208e+01  4.2406363331078097e+01  4.2400483709352912e+01  4.2392694942554733e+01  4.2382408713735202e+01  4.2368864145380172e+01  4.2351078720375945e+01  4.2327784920749949e+01  4.2297347874362238e+01  4.2257657359555459e+01  4.2205984579244060e+01  4.2138789573619789e+01  4.2051457968470835e+01  4.1937934171704079e+01  4.1790198952129437e+01  4.1597506706282587e+01  4.1345240498096295e+01  4.1013139145834714e+01  4.0572455043931157e+01  3.9981217192343074e+01  3.9175984265274522e+01  3.8056772605095276e+01  3.6458031728939702e+01  3.4089866994064764e+01  3.0415720556892744e+01  2.4418160120354809e+01  1.4454729030623849e+01  0.0000000000000000e+00  0.0000000000000000e+00  9.8075049295730956e+00  1.7852843992021022e+01  2.3711885406274057e+01  2.7809105617507399e+01  3.0678327945309203e+01  3.2719708276892312e+01  3.4198788051239475e+01  3.5288151753562957e+01  3.6101357162329982e+01  3.6714851423543230e+01  3.7181394744481139e+01  3.7538265861237363e+01  3.7812360403708112e+01  3.8023432682848664e+01  3.8186209394395433e+01  3.8311802792855673e+01  3.8408678543762903e+01  3.8483333737767872e+01  3.8540781851241526e+01  3.8584906205844248e+01  3.8618721905882268e+01  3.8644572761416278e+01  3.8664281133667792e+01  3.8679263085073039e+01  3.8690617552511014e+01  3.8699195802042645e+01  3.8705655741464753e+01  3.8710504495525939e+01  3.8714131817208745e+01  3.8716836306971452e+01  3.8718845968398277e+01  3.8720334295872284e+01  3.8721432835942387e+01  3.8722240967521095e+01  3.8722833492148858e+01  3.8723266503941922e+01  3.8723581912110852e+01  3.8723810911686563e+01  3.8723976636275708e+01  3.8724096177193260e+01  3.8724182113766723e+01  3.8724243668058236e+01  3.8724287572158318e+01  3.8724318716315217e+01  3.8724340630449980e+01  3.8724355839226810e+01  3.8724366121112382e+01  3.8724372694189903e+01  3.8724376345431445e+01  3.8724377515276998e+01  3.8724376345392741e+01  3.8724372694103302e+01  3.8724366120958187e+01  3.8724355838971775e+01  3.8724340630042640e+01  3.8724318715678770e+01  3.8724287571180348e+01  3.8724243666576804e+01  3.8724182111550917e+01  3.8724096173917104e+01  3.8723976631483247e+01  3.8723810904745662e+01  3.8723581902152979e+01  3.8723266489783988e+01  3.8722833472193685e+01  3.8722240939631483e+01  3.8721432797284344e+01  3.8720334242722437e+01  3.8718845895910775e+01  3.8716836208901015e+01  3.8714131685586700e+01  3.8710504320290369e+01  3.8705655510047833e+01  3.8699195498923551e+01  3.8690617158748914e+01  3.8679262577841484e+01  3.8664280485820179e+01  3.8644571941120795e+01  3.8618720876372144e+01  3.8584904925336303e+01  3.8540780273079591e+01  3.8483331810844540e+01  3.8408676213265366e+01  3.8311800001363132e+01  3.8186206083325672e+01  3.8023428794209586e+01  3.7812355882056288e+01  3.7538260655677405e+01  3.7181388810462806e+01  3.6714844724126209e+01  3.6101349668492730e+01  3.5288143443028737e+01  3.4198778905175452e+01  3.2719698273698882e+01  3.0678317050595730e+01  2.7809093769543185e+01  2.3711872498116598e+01  1.7852829859333923e+01  9.8074893530856375e+00  0.0000000000000000e+00  0.0000000000000000e+00  7.2308937586726758e+00  1.3627315206328534e+01  1.8794231309085387e+01  2.2760796884108085e+01  2.5743075827264839e+01  2.7976438324630305e+01  2.9655084690619560e+01  3.0924733876618703e+01  3.1891302684248711e+01  3.2631359679368138e+01  3.3200587037012632e+01  3.3639903044843386e+01  3.3979727973855773e+01  3.4242931092846163e+01  3.4446876361760381e+01  3.4604858473417472e+01  3.4727125330657692e+01  3.4821617258300265e+01  3.4894509609390035e+01  3.4950616829527199e+01  3.4993697317569570e+01  3.5026686093481445e+01  3.5051874098142342e+01  3.5071047455582750e+01  3.5085596294881711e+01  3.5096600157582806e+01  3.5104895218733077e+01  3.5111127272314953e+01  3.5115793508591501e+01  3.5119275431677146e+01  3.5121864757113897e+01  3.5123783742073677e+01  3.5125201101553081e+01  3.5126244429595218e+01  3.5127009859145495e+01  3.5127569546265271e+01  3.5127977445859536e+01  3.5128273750723835e+01  3.5128488288959609e+01  3.5128643113054601e+01  3.5128754464338307e+01  3.5128834256815892e+01  3.5128891192699385e+01  3.5128931596765526e+01  3.5128960036716997e+01  3.5128979780970084e+01  3.5128993132873966e+01  3.5129001670571888e+01  3.5129006413956432e+01  3.5129007933944621e+01  3.5129006414198429e+01  3.5129001671072110e+01  3.5128993133665219e+01  3.5128979782102547e+01  3.5128960038258960e+01  3.5128931598804357e+01  3.5128891195341566e+01  3.5128834260186139e+01  3.5128754468576652e+01  3.5128643118310123e+01  3.5128488295379242e+01  3.5128273758434240e+01  3.5127977454939078e+01  3.5127569556702596e+01  3.5127009870780306e+01  3.5126244442036317e+01  3.5125201114067281e+01  3.5123783753439582e+01  3.5121864765432775e+01  3.5119275434134508e+01  3.5115793501162855e+01  3.5111127249411709e+01  3.5104895172786641e+01  3.5096600078570297e+01  3.5085596169802670e+01  3.5071047267903595e+01  3.5051873827235610e+01  3.5026685714097582e+01  3.4993696799389632e+01  3.4950616136855295e+01  3.4894508701051834e+01  3.4821616087815400e+01  3.4727123846749109e+01  3.4604856620904279e+01  3.4446874082851274e+01  3.4242928328805817e+01  3.3979724666956919e+01  3.3639899140440271e+01  3.3200582485483991e+01  3.2631354437581741e+01  3.1891296716102417e+01  3.0924727152124269e+01  2.9655077182928871e+01  2.7976430004394611e+01  2.5743066653847226e+01  2.2760786793657076e+01  1.8794220200595191e+01  1.3627302927482832e+01  7.2308800871164811e+00  0.0000000000000000e+00  0.0000000000000000e+00  5.5900900979529116e+00  1.0728843495013713e+01  1.5135919391155429e+01  1.8738074968669729e+01  2.1599454392725800e+01  2.3839445723057160e+01  2.5582254260358440e+01  2.6936041486591137e+01  2.7988146909861392e+01  2.8806783644947860e+01  2.9444527894458947e+01  2.9941774662852204e+01  3.0329612159511999e+01  3.0632056506934617e+01  3.0867741485328008e+01  3.1051184410732702e+01  3.1193734695456797e+01  3.1304288354134520e+01  3.1389830344270688e+01  3.1455849755200504e+01  3.1506660346891145e+01  3.1545649927918937e+01  3.1575475653107375e+01  3.1598217779668897e+01  3.1615501194501910e+01  3.1628591718289002e+01  3.1638472525922538e+01  3.1645904804415327e+01  3.1651475865653527e+01  3.1655637250495317e+01  3.1658734839778106e+01  3.1661032583264134e+01  3.1662731139240634e+01  3.1663982464222762e+01  3.1664901188961366e+01  3.1665573452860230e+01  3.1666063735935797e+01  3.1666420119537513e+01  3.1666678319493450e+01  3.1666864764432777e+01  3.1666998934764521e+01  3.1667095131702837e+01  3.1667163808794005e+01  3.1667212568923887e+01  3.1667246906362653e+01  3.1667270754852893e+01  3.1667286888087308e+01  3.1667297207333196e+01  3.1667302941756994e+01  3.1667304779604653e+01  3.1667302942320163e+01  3.1667297208504422e+01  3.1667286889958650e+01  3.1667270757568495e+01  3.1667246910125588e+01  3.1667212574005756e+01  3.1667163815546335e+01  3.1667095140570421e+01  3.1666998946300190e+01  3.1666864779312462e+01  3.1666678338530282e+01  3.1666420143693124e+01  3.1666063766325838e+01  3.1665573490750507e+01  3.1664901235749358e+01  3.1663982521398751e+01  3.1662731208320409e+01  3.1661032665684655e+01  3.1658734936745784e+01  3.1655637362776368e+01  3.1651475993295222e+01  3.1645904946389198e+01  3.1638472679681310e+01  3.1628591879235945e+01  3.1615501355375990e+01  3.1598217929859324e+01  3.1575475777922900e+01  3.1545650007850945e+01  3.1506660356924343e+01  3.1455849664240851e+01  3.1389830114772099e+01  3.1304287942013371e+01  3.1193734050382648e+01  3.1051183476870200e+01  3.0867740202576421e+01  3.0632054812664379e+01  3.0329609990731377e+01  2.9941771958652772e+01  2.9444524598489537e+01  2.8806779707561525e+01  2.7988142289480404e+01  2.6936036149756735e+01  2.5582248179900759e+01  2.3839438873871789e+01  2.1599446744827659e+01  1.8738066477555606e+01  1.5135909985905810e+01  1.0728833064358229e+01  5.5900784729500925e+00  0.0000000000000000e+00  0.0000000000000000e+00  4.4465813915800254e+00  8.6249446078274890e+00  1.2342853068664130e+01  1.5513555344349815e+01  1.8137911308692754e+01  2.0268123175195697e+01  2.1976596345889885e+01  2.3337079895220565e+01  2.4415892138569667e+01  2.5269119704965870e+01  2.5942702769209376e+01  2.6473649005627610e+01  2.6891523479718391e+01  2.7219855971990327e+01  2.7477345724236429e+01  2.7678847258208915e+01  2.7836160010821892e+01  2.7958655042180517e+01  2.8053771115624730e+01  2.8127407688736390e+01  2.8184236988550126e+01  2.8227952551063222e+01  2.8261467696851870e+01  2.8287074362993170e+01  2.8306570377806466e+01  2.8321361494470601e+01  2.8332543156156813e+01  2.8340965940101619e+01  2.8347287838307565e+01  2.8352015917215954e+01  2.8355539413386808e+01  2.8358155934997292e+01  2.8360092126848127e+01  2.8361519902928578e+01  2.8362569143274762e+01  2.8363337581809301e+01  2.8363898472183951e+01  2.8364306503989091e+01  2.8364602347753099e+01  2.8364816130433663e+01  2.8364970080695741e+01  2.8365080532742990e+01  2.8365159436762681e+01  2.8365215491408112e+01  2.8365254987705192e+01  2.8365282433073961e+01  2.8365301007749000e+01  2.8365312892872780e+01  2.8365319499177136e+01  2.8365321616822040e+01  2.8365319500091285e+01  2.8365312894776885e+01  2.8365301010799151e+01  2.8365282437515560e+01  2.8365254993886477e+01  2.8365215499798772e+01  2.8365159447977028e+01  2.8365080547568493e+01  2.8364970100125973e+01  2.8364816155705508e+01  2.8364602380386778e+01  2.8364306545829724e+01  2.8363898525440806e+01  2.8363337649089459e+01  2.8362569227604908e+01  2.8361520007757676e+01  2.8360092256021190e+01  2.8358156092688851e+01  2.8355539603980453e+01  2.8352016145115044e+01  2.8347288107660841e+01  2.8340966254428992e+01  2.8332543517862021e+01  2.8321361904232546e+01  2.8306570833848554e+01  2.8287074860241088e+01  2.8261468226004094e+01  2.8227953097616943e+01  2.8184237531844349e+01  2.8127408201094948e+01  2.8053771561700739e+01  2.7958655378616985e+01  2.7836160186347868e+01  2.7678847214280982e+01  2.7477345396307872e+01  2.7219855291441551e+01  2.6891522376409799e+01  2.6473647410943553e+01  2.5942700619351086e+01  2.5269116944136577e+01  2.4415888721587780e+01  2.3337075789020499e+01  2.1976591529349459e+01  2.0268117636792386e+01  1.8137905041663554e+01  1.5513548339298861e+01  1.2342845303842301e+01  8.6249360374826676e+00  4.4465719329652389e+00  0.0000000000000000e+00  0.0000000000000000e+00  3.5998610197648095e+00  7.0290941254170285e+00  1.0154504622952206e+01  1.2899646520199273e+01  1.5242382975738149e+01  1.7199665666818355e+01  1.8810290284140631e+01  2.0121550930944135e+01  2.1180988484274451e+01  2.2032176655624362e+01  2.2713071260593800e+01  2.3255762943932769e+01  2.3686897576469363e+01  2.4028352577596195e+01  2.4297960419853467e+01  2.4510184656655355e+01  2.4676713161276350e+01  2.4806961937527614e+01  2.4908495397992699e+01  2.4987373506966946e+01  2.5048436936862071e+01  2.5095540558216715e+01  2.5131744222716119e+01  2.5159468379781515e+01  2.5180620780728731e+01  2.5196699426983425e+01  2.5208876008851401e+01  2.5218063335600338e+01  2.5224969647879206e+01  2.5230142203561421e+01  2.5234002116050092e+01  2.5236872082553884e+01  2.5238998355391224e+01  2.5240568071669088e+01  2.5241722857722969e+01  2.5242569458211534e+01  2.5243188000692225e+01  2.5243638390709119e+01  2.5243965236419029e+01  2.5244201622579684e+01  2.5244371988748991e+01  2.5244494313552266e+01  2.5244581763913494e+01  2.5244643933517878e+01  2.5244687767012145e+01  2.5244718244291079e+01  2.5244738881585789e+01  2.5244752092039537e+01  2.5244759437249808e+01  2.5244761792200329e+01  2.5244759438533219e+01  2.5244752094714372e+01  2.5244738885874735e+01  2.5244718250544782e+01  2.5244687775729528e+01  2.5244643945373877e+01  2.5244581779794355e+01  2.5244494334599235e+01  2.5244372016409709e+01  2.5244201658667610e+01  2.5243965283179520e+01  2.5243638450890558e+01  2.5243188077619024e+01  2.5242569555854200e+01  2.5241722980758794e+01  2.5240568225524285e+01  2.5238998546252908e+01  2.5236872317337550e+01  2.5234002402305219e+01  2.5230142549296207e+01  2.5224970061282683e+01  2.5218063824641604e+01  2.5208876580736884e+01  2.5196700087458655e+01  2.5180621533219039e+01  2.5159469224379851e+01  2.5131745155042697e+01  2.5095541568197255e+01  2.5048438007495715e+01  2.4987374613182254e+01  2.4908496505714620e+01  2.4806963003098076e+01  2.4676714131382038e+01  2.4510185468909512e+01  2.4297961004153844e+01  2.4028352858329566e+01  2.3686897475556606e+01  2.3255762384605802e+01  2.2713070171675167e+01  2.2032174975951776e+01  2.1180986166795488e+01  2.0121547945920902e+01  1.8810286620879271e+01  1.7199661333393806e+01  1.5242377996339705e+01  1.2899640929967900e+01  1.0154498460493089e+01  7.0290874235562608e+00  3.5998537956430341e+00  0.0000000000000000e+00  0.0000000000000000e+00  2.9462461625278342e+00  5.7783516074244332e+00  8.4021731751794171e+00  1.0755750088351876e+01  1.2811018260956672e+01  1.4567768006459026e+01  1.6044555538729540e+01  1.7270174482410056e+01  1.8277291708429459e+01  1.9098399018747983e+01  1.9763591322326942e+01  2.0299570578491831e+01  2.0729384630791031e+01  2.1072563688321011e+01  2.1345445463336876e+01  2.1561568933527035e+01  2.1732072546014507e+01  2.1866065517393487e+01  2.1970959215304223e+01  2.2052755328436344e+01  2.2116292360677427e