<?xml version="1.0"?>
<VTKFile type="UnstructuredGrid"  version="0.1"  >
<UnstructuredGrid>
<Piece  NumberOfPoints="10201" NumberOfCells="20000">
<Points>
<DataArray  type="Float64"  NumberOfComponents="3"  format="ascii">0 0 0  0.01 0 0  0.02 0 0  0.03 0 0  0.04 0 0  0.05 0 0  0.06 0 0  0.07000000000000001 0 0  0.08 0 0  0.09 0 0  0.1 0 0  0.11 0 0  0.12 0 0  0.13 0 0  0.14 0 0  0.15 0 0  0.16 0 0  0.17 0 0  0.18 0 0  0.19 0 0  0.2 0 0  0.21 0 0  0.22 0 0  0.23 0 0  0.24 0 0  0.25 0 0  0.26 0 0  0.27 0 0  0.28 0 0  0.29 0 0  0.3 0 0  0.31 0 0  0.32 0 0  0.33 0 0  0.34 0 0  0.35 0 0  0.36 0 0  0.37 0 0  0.38 0 0  0.39 0 0  0.4 0 0  0.41 0 0  0.42 0 0  0.43 0 0  0.44 0 0  0.45 0 0  0.46 0 0  0.47 0 0  0.48 0 0  0.49 0 0  0.5 0 0  0.51 0 0  0.52 0 0  0.53 0 0  0.54 0 0  0.55 0 0  0.5600000000000001 0 0  0.57 0 0  0.58 0 0  0.59 0 0  0.6 0 0  0.61 0 0  0.62 0 0  0.63 0 0  0.64 0 0  0.65 0 0  0.66 0 0  0.67 0 0  0.68 0 0  0.6899999999999999 0 0  0.7 0 0  0.71 0 0  0.72 0 0  0.73 0 0  0.74 0 0  0.75 0 0  0.76 0 0  0.77 0 0  0.78 0 0  0.79 0 0  0.8 0 0  0.8100000000000001 0 0  0.82 0 0  0.83 0 0  0.84 0 0  0.85 0 0  0.86 0 0  0.87 0 0  0.88 0 0  0.89 0 0  0.9 0 0  0.91 0 0  0.92 0 0  0.93 0 0  0.9399999999999999 0 0  0.95 0 0  0.96 0 0  0.97 0 0  0.98 0 0  0.99 0 0  1 0 0  0 0.01 0  0.01 0.01 0  0.02 0.01 0  0.03 0.01 0  0.04 0.01 0  0.05 0.01 0  0.06 0.01 0  0.07000000000000001 0.01 0  0.08 0.01 0  0.09 0.01 0  0.1 0.01 0  0.11 0.01 0  0.12 0.01 0  0.13 0.01 0  0.14 0.01 0  0.15 0.01 0  0.16 0.01 0  0.17 0.01 0  0.18 0.01 0  0.19 0.01 0  0.2 0.01 0  0.21 0.01 0  0.22 0.01 0  0.23 0.01 0  0.24 0.01 0  0.25 0.01 0  0.26 0.01 0  0.27 0.01 0  0.28 0.01 0  0.29 0.01 0  0.3 0.01 0  0.31 0.01 0  0.32 0.01 0  0.33 0.01 0  0.34 0.01 0  0.35 0.01 0  0.36 0.01 0  0.37 0.01 0  0.38 0.01 0  0.39 0.01 0  0.4 0.01 0  0.41 0.01 0  0.42 0.01 0  0.43 0.01 0  0.44 0.01 0  0.45 0.01 0  0.46 0.01 0  0.47 0.01 0  0.48 0.01 0  0.49 0.01 0  0.5 0.01 0  0.51 0.01 0  0.52 0.01 0  0.53 0.01 0  0.54 0.01 0  0.55 0.01 0  0.5600000000000001 0.01 0  0.57 0.01 0  0.58 0.01 0  0.59 0.01 0  0.6 0.01 0  0.61 0.01 0  0.62 0.01 0  0.63 0.01 0  0.64 0.01 0  0.65 0.01 0  0.66 0.01 0  0.67 0.01 0  0.68 0.01 0  0.6899999999999999 0.01 0  0.7 0.01 0  0.71 0.01 0  0.72 0.01 0  0.73 0.01 0  0.74 0.01 0  0.75 0.01 0  0.76 0.01 0  0.77 0.01 0  0.78 0.01 0  0.79 0.01 0  0.8 0.01 0  0.8100000000000001 0.01 0  0.82 0.01 0  0.83 0.01 0  0.84 0.01 0  0.85 0.01 0  0.86 0.01 0  0.87 0.01 0  0.88 0.01 0  0.89 0.01 0  0.9 0.01 0  0.91 0.01 0  0.92 0.01 0  0.93 0.01 0  0.9399999999999999 0.01 0  0.95 0.01 0  0.96 0.01 0  0.97 0.01 0  0.98 0.01 0  0.99 0.01 0  1 0.01 0  0 0.02 0  0.01 0.02 0  0.02 0.02 0  0.03 0.02 0  0.04 0.02 0  0.05 0.02 0  0.06 0.02 0  0.07000000000000001 0.02 0  0.08 0.02 0  0.09 0.02 0  0.1 0.02 0  0.11 0.02 0  0.12 0.02 0  0.13 0.02 0  0.14 0.02 0  0.15 0.02 0  0.16 0.02 0  0.17 0.02 0  0.18 0.02 0  0.19 0.02 0  0.2 0.02 0  0.21 0.02 0  0.22 0.02 0  0.23 0.02 0  0.24 0.02 0  0.25 0.02 0  0.26 0.02 0  0.27 0.02 0  0.28 0.02 0  0.29 0.02 0  0.3 0.02 0  0.31 0.02 0  0.32 0.02 0  0.33 0.02 0  0.34 0.02 0  0.35 0.02 0  0.36 0.02 0  0.37 0.02 0  0.38 0.02 0  0.39 0.02 0  0.4 0.02 0  0.41 0.02 0  0.42 0.02 0  0.43 0.02 0  0.44 0.02 0  0.45 0.02 0  0.46 0.02 0  0.47 0.02 0  0.48 0.02 0  0.49 0.02 0  0.5 0.02 0  0.51 0.02 0  0.52 0.02 0  0.53 0.02 0  0.54 0.02 0  0.55 0.02 0  0.5600000000000001 0.02 0  0.57 0.02 0  0.58 0.02 0  0.59 0.02 0  0.6 0.02 0  0.61 0.02 0  0.62 0.02 0  0.63 0.02 0  0.64 0.02 0  0.65 0.02 0  0.66 0.02 0  0.67 0.02 0  0.68 0.02 0  0.6899999999999999 0.02 0  0.7 0.02 0  0.71 0.02 0  0.72 0.02 0  0.73 0.02 0  0.74 0.02 0  0.75 0.02 0  0.76 0.02 0  0.77 0.02 0  0.78 0.02 0  0.79 0.02 0  0.8 0.02 0  0.8100000000000001 0.02 0  0.82 0.02 0  0.83 0.02 0  0.84 0.02 0  0.85 0.02 0  0.86 0.02 0  0.87 0.02 0  0.88 0.02 0  0.89 0.02 0  0.9 0.02 0  0.91 0.02 0  0.92 0.02 0  0.93 0.02 0  0.9399999999999999 0.02 0  0.95 0.02 0  0.96 0.02 0  0.97 0.02 0  0.98 0.02 0  0.99 0.02 0  1 0.02 0  0 0.03 0  0.01 0.03 0  0.02 0.03 0  0.03 0.03 0  0.04 0.03 0  0.05 0.03 0  0.06 0.03 0  0.07000000000000001 0.03 0  0.08 0.03 0  0.09 0.03 0  0.1 0.03 0  0.11 0.03 0  0.12 0.03 0  0.13 0.03 0  0.14 0.03 0  0.15 0.03 0  0.16 0.03 0  0.17 0.03 0  0.18 0.03 0  0.19 0.03 0  0.2 0.03 0  0.21 0.03 0  0.22 0.03 0  0.23 0.03 0  0.24 0.03 0  0.25 0.03 0  0.26 0.03 0  0.27 0.03 0  0.28 0.03 0  0.29 0.03 0  0.3 0.03 0  0.31 0.03 0  0.32 0.03 0  0.33 0.03 0  0.34 0.03 0  0.35 0.03 0  0.36 0.03 0  0.37 0.03 0  0.38 0.03 0  0.39 0.03 0  0.4 0.03 0  0.41 0.03 0  0.42 0.03 0  0.43 0.03 0  0.44 0.03 0  0.45 0.03 0  0.46 0.03 0  0.47 0.03 0  0.48 0.03 0  0.49 0.03 0  0.5 0.03 0  0.51 0.03 0  0.52 0.03 0  0.53 0.03 0  0.54 0.03 0  0.55 0.03 0  0.5600000000000001 0.03 0  0.57 0.03 0  0.58 0.03 0  0.59 0.03 0  0.6 0.03 0  0.61 0.03 0  0.62 0.03 0  0.63 0.03 0  0.64 0.03 0  0.65 0.03 0  0.66 0.03 0  0.67 0.03 0  0.68 0.03 0  0.6899999999999999 0.03 0  0.7 0.03 0  0.71 0.03 0  0.72 0.03 0  0.73 0.03 0  0.74 0.03 0  0.75 0.03 0  0.76 0.03 0  0.77 0.03 0  0.78 0.03 0  0.79 0.03 0  0.8 0.03 0  0.8100000000000001 0.03 0  0.82 0.03 0  0.83 0.03 0  0.84 0.03 0  0.85 0.03 0  0.86 0.03 0  0.87 0.03 0  0.88 0.03 0  0.89 0.03 0  0.9 0.03 0  0.91 0.03 0  0.92 0.03 0  0.93 0.03 0  0.9399999999999999 0.03 0  0.95 0.03 0  0.96 0.03 0  0.97 0.03 0  0.98 0.03 0  0.99 0.03 0  1 0.03 0  0 0.04 0  0.01 0.04 0  0.02 0.04 0  0.03 0.04 0  0.04 0.04 0  0.05 0.04 0  0.06 0.04 0  0.07000000000000001 0.04 0  0.08 0.04 0  0.09 0.04 0  0.1 0.04 0  0.11 0.04 0  0.12 0.04 0  0.13 0.04 0  0.14 0.04 0  0.15 0.04 0  0.16 0.04 0  0.17 0.04 0  0.18 0.04 0  0.19 0.04 0  0.2 0.04 0  0.21 0.04 0  0.22 0.04 0  0.23 0.04 0  0.24 0.04 0  0.25 0.04 0  0.26 0.04 0  0.27 0.04 0  0.28 0.04 0  0.29 0.04 0  0.3 0.04 0  0.31 0.04 0  0.32 0.04 0  0.33 0.04 0  0.34 0.04 0  0.35 0.04 0  0.36 0.04 0  0.37 0.04 0  0.38 0.04 0  0.39 0.04 0  0.4 0.04 0  0.41 0.04 0  0.42 0.04 0  0.43 0.04 0  0.44 0.04 0  0.45 0.04 0  0.46 0.04 0  0.47 0.04 0  0.48 0.04 0  0.49 0.04 0  0.5 0.04 0  0.51 0.04 0  0.52 0.04 0  0.53 0.04 0  0.54 0.04 0  0.55 0.04 0  0.5600000000000001 0.04 0  0.57 0.04 0  0.58 0.04 0  0.59 0.04 0  0.6 0.04 0  0.61 0.04 0  0.62 0.04 0  0.63 0.04 0  0.64 0.04 0  0.65 0.04 0  0.66 0.04 0  0.67 0.04 0  0.68 0.04 0  0.6899999999999999 0.04 0  0.7 0.04 0  0.71 0.04 0  0.72 0.04 0  0.73 0.04 0  0.74 0.04 0  0.75 0.04 0  0.76 0.04 0  0.77 0.04 0  0.78 0.04 0  0.79 0.04 0  0.8 0.04 0  0.8100000000000001 0.04 0  0.82 0.04 0  0.83 0.04 0  0.84 0.04 0  0.85 0.04 0  0.86 0.04 0  0.87 0.04 0  0.88 0.04 0  0.89 0.04 0  0.9 0.04 0  0.91 0.04 0  0.92 0.04 0  0.93 0.04 0  0.9399999999999999 0.04 0  0.95 0.04 0  0.96 0.04 0  0.97 0.04 0  0.98 0.04 0  0.99 0.04 0  1 0.04 0  0 0.05 0  0.01 0.05 0  0.02 0.05 0  0.03 0.05 0  0.04 0.05 0  0.05 0.05 0  0.06 0.05 0  0.07000000000000001 0.05 0  0.08 0.05 0  0.09 0.05 0  0.1 0.05 0  0.11 0.05 0  0.12 0.05 0  0.13 0.05 0  0.14 0.05 0  0.15 0.05 0  0.16 0.05 0  0.17 0.05 0  0.18 0.05 0  0.19 0.05 0  0.2 0.05 0  0.21 0.05 0  0.22 0.05 0  0.23 0.05 0  0.24 0.05 0  0.25 0.05 0  0.26 0.05 0  0.27 0.05 0  0.28 0.05 0  0.29 0.05 0  0.3 0.05 0  0.31 0.05 0  0.32 0.05 0  0.33 0.05 0  0.34 0.05 0  0.35 0.05 0  0.36 0.05 0  0.37 0.05 0  0.38 0.05 0  0.39 0.05 0  0.4 0.05 0  0.41 0.05 0  0.42 0.05 0  0.43 0.05 0  0.44 0.05 0  0.45 0.05 0  0.46 0.05 0  0.47 0.05 0  0.48 0.05 0  0.49 0.05 0  0.5 0.05 0  0.51 0.05 0  0.52 0.05 0  0.53 0.05 0  0.54 0.05 0  0.55 0.05 0  0.5600000000000001 0.05 0  0.57 0.05 0  0.58 0.05 0  0.59 0.05 0  0.6 0.05 0  0.61 0.05 0  0.62 0.05 0  0.63 0.05 0  0.64 0.05 0  0.65 0.05 0  0.66 0.05 0  0.67 0.05 0  0.68 0.05 0  0.6899999999999999 0.05 0  0.7 0.05 0  0.71 0.05 0  0.72 0.05 0  0.73 0.05 0  0.74 0.05 0  0.75 0.05 0  0.76 0.05 0  0.77 0.05 0  0.78 0.05 0  0.79 0.05 0  0.8 0.05 0  0.8100000000000001 0.05 0  0.82 0.05 0  0.83 0.05 0  0.84 0.05 0  0.85 0.05 0  0.86 0.05 0  0.87 0.05 0  0.88 0.05 0  0.89 0.05 0  0.9 0.05 0  0.91 0.05 0  0.92 0.05 0  0.93 0.05 0  0.9399999999999999 0.05 0  0.95 0.05 0  0.96 0.05 0  0.97 0.05 0  0.98 0.05 0  0.99 0.05 0  1 0.05 0  0 0.06 0  0.01 0.06 0  0.02 0.06 0  0.03 0.06 0  0.04 0.06 0  0.05 0.06 0  0.06 0.06 0  0.07000000000000001 0.06 0  0.08 0.06 0  0.09 0.06 0  0.1 0.06 0  0.11 0.06 0  0.12 0.06 0  0.13 0.06 0  0.14 0.06 0  0.15 0.06 0  0.16 0.06 0  0.17 0.06 0  0.18 0.06 0  0.19 0.06 0  0.2 0.06 0  0.21 0.06 0  0.22 0.06 0  0.23 0.06 0  0.24 0.06 0  0.25 0.06 0  0.26 0.06 0  0.27 0.06 0  0.28 0.06 0  0.29 0.06 0  0.3 0.06 0  0.31 0.06 0  0.32 0.06 0  0.33 0.06 0  0.34 0.06 0  0.35 0.06 0  0.36 0.06 0  0.37 0.06 0  0.38 0.06 0  0.39 0.06 0  0.4 0.06 0  0.41 0.06 0  0.42 0.06 0  0.43 0.06 0  0.44 0.06 0  0.45 0.06 0  0.46 0.06 0  0.47 0.06 0  0.48 0.06 0  0.49 0.06 0  0.5 0.06 0  0.51 0.06 0  0.52 0.06 0  0.53 0.06 0  0.54 0.06 0  0.55 0.06 0  0.5600000000000001 0.06 0  0.57 0.06 0  0.58 0.06 0  0.59 0.06 0  0.6 0.06 0  0.61 0.06 0  0.62 0.06 0  0.63 0.06 0  0.64 0.06 0  0.65 0.06 0  0.66 0.06 0  0.67 0.06 0  0.68 0.06 0  0.6899999999999999 0.06 0  0.7 0.06 0  0.71 0.06 0  0.72 0.06 0  0.73 0.06 0  0.74 0.06 0  0.75 0.06 0  0.76 0.06 0  0.77 0.06 0  0.78 0.06 0  0.79 0.06 0  0.8 0.06 0  0.8100000000000001 0.06 0  0.82 0.06 0  0.83 0.06 0  0.84 0.06 0  0.85 0.06 0  0.86 0.06 0  0.87 0.06 0  0.88 0.06 0  0.89 0.06 0  0.9 0.06 0  0.91 0.06 0  0.92 0.06 0  0.93 0.06 0  0.9399999999999999 0.06 0  0.95 0.06 0  0.96 0.06 0  0.97 0.06 0  0.98 0.06 0  0.99 0.06 0  1 0.06 0  0 0.07000000000000001 0  0.01 0.07000000000000001 0  0.02 0.07000000000000001 0  0.03 0.07000000000000001 0  0.04 0.07000000000000001 0  0.05 0.07000000000000001 0  0.06 0.07000000000000001 0  0.07000000000000001 0.07000000000000001 0  0.08 0.07000000000000001 0  0.09 0.07000000000000001 0  0.1 0.07000000000000001 0  0.11 0.07000000000000001 0  0.12 0.07000000000000001 0  0.13 0.07000000000000001 0  0.14 0.07000000000000001 0  0.15 0.07000000000000001 0  0.16 0.07000000000000001 0  0.17 0.0700
[...]
<PointData  Scalars="f_17"> 
<DataArray  type="Float64"  Name="f_17"  format="ascii">0.0000000000000000e+00  5.0000000000000000e+01  5.0000000000000000e+01  5.0000000000000000e+01  5.0000000000000000e+01  5.0000000000000000e+01  5.0000000000000000e+01  5.0000000000000000e+01  5.0000000000000000e+01  5.0000000000000000e+01  5.0000000000000000e+01  5.0000000000000000e+01  5.0000000000000000e+01  5.0000000000000000e+01  5.0000000000000000e+01  5.0000000000000000e+01  5.0000000000000000e+01  5.0000000000000000e+01  5.0000000000000000e+01  5.0000000000000000e+01  5.0000000000000000e+01  5.0000000000000000e+01  5.0000000000000000e+01  5.0000000000000000e+01  5.0000000000000000e+01  5.0000000000000000e+01  5.0000000000000000e+01  5.0000000000000000e+01  5.0000000000000000e+01  5.0000000000000000e+01  5.0000000000000000e+01  5.0000000000000000e+01  5.0000000000000000e+01  5.0000000000000000e+01  5.0000000000000000e+01  5.0000000000000000e+01  5.0000000000000000e+01  5.0000000000000000e+01  5.0000000000000000e+01  5.0000000000000000e+01  5.0000000000000000e+01  5.0000000000000000e+01  5.0000000000000000e+01  5.0000000000000000e+01  5.0000000000000000e+01  5.0000000000000000e+01  5.0000000000000000e+01  5.0000000000000000e+01  5.0000000000000000e+01  5.0000000000000000e+01  5.0000000000000000e+01  5.0000000000000000e+01  5.0000000000000000e+01  5.0000000000000000e+01  5.0000000000000000e+01  5.0000000000000000e+01  5.0000000000000000e+01  5.0000000000000000e+01  5.0000000000000000e+01  5.0000000000000000e+01  5.0000000000000000e+01  5.0000000000000000e+01  5.0000000000000000e+01  5.0000000000000000e+01  5.0000000000000000e+01  5.0000000000000000e+01  5.0000000000000000e+01  5.0000000000000000e+01  5.0000000000000000e+01  5.0000000000000000e+01  5.0000000000000000e+01  5.0000000000000000e+01  5.0000000000000000e+01  5.0000000000000000e+01  5.0000000000000000e+01  5.0000000000000000e+01  5.0000000000000000e+01  5.0000000000000000e+01  5.0000000000000000e+01  5.0000000000000000e+01  5.0000000000000000e+01  5.0000000000000000e+01  5.0000000000000000e+01  5.0000000000000000e+01  5.0000000000000000e+01  5.0000000000000000e+01  5.0000000000000000e+01  5.0000000000000000e+01  5.0000000000000000e+01  5.0000000000000000e+01  5.0000000000000000e+01  5.0000000000000000e+01  5.0000000000000000e+01  5.0000000000000000e+01  5.0000000000000000e+01  5.0000000000000000e+01  5.0000000000000000e+01  5.0000000000000000e+01  5.0000000000000000e+01  5.0000000000000000e+01  0.0000000000000000e+00  0.0000000000000000e+00  2.4707342633020062e+01  3.4671288964687065e+01  3.8894199095067385e+01  4.1061111347166680e+01  4.2310811264430050e+01  4.3085086122447102e+01  4.3586960308123153e+01  4.3921856810179932e+01  4.4149574176246396e+01  4.4306289134733312e+01  4.4414943452363332e+01  4.4490592750988242e+01  4.4543363100527827e+01  4.4580183527113462e+01  4.4605851203472625e+01  4.4623712425120338e+01  4.4636111661634594e+01  4.4644694823856717e+01  4.4650617734667925e+01  4.4654691243159910e+01  4.4657483081358855e+01  4.4659389715243940e+01  4.4660687150567881e+01  4.4661566872631020e+01  4.4662161243113978e+01  4.4662561408519046e+01  4.4662829891558829e+01  4.4663009413655850e+01  4.4663129053124884e+01  4.4663208526267788e+01  4.4663261151109914e+01  4.4663295890455103e+01  4.4663318754287808e+01  4.4663333758359684e+01  4.4663343576690878e+01  4.4663349983913207e+01  4.4663354153948276e+01  4.4663356860898631e+01  4.4663358613656897e+01  4.4663359745772809e+01  4.4663360475234832e+01  4.4663360944101541e+01  4.4663361244684388e+01  4.4663361436787639e+01  4.4663361559018746e+01  4.4663361636178628e+01  4.4663361684063055e+01  4.4663361712553630e+01  4.4663361727569395e+01  4.4663361732245576e+01  4.4663361727561060e+01  4.4663361712535220e+01  4.4663361684031003e+01  4.4663361636126730e+01  4.4663361558936920e+01  4.4663361436660132e+01  4.4663361244487064e+01  4.4663360943797500e+01  4.4663360474768020e+01  4.4663359745058202e+01  4.4663358612566590e+01  4.4663356859240643e+01  4.4663354151435527e+01  4.4663349980118177e+01  4.4663343570980267e+01  4.4663333749799399e+01  4.4663318741507098e+01  4.4663295871452767e+01  4.4663261122980892e+01  4.4663208484819449e+01  4.4663128992344205e+01  4.4663009324976109e+01  4.4662829762861428e+01  4.4662561222789961e+01  4.4662160976659685e+01  4.4661566492742097e+01  4.4660686612510830e+01  4.4659388958459182e+01  4.4657482024760384e+01  4.4654689779475277e+01  4.4650615723838406e+01  4.4644692085650597e+01  4.4636107967826632e+01  4.4623707491862788e+01  4.4605844684827026e+01  4.4580175011108153e+01  4.4543352109497704e+01  4.4490578748245916e+01  4.4414925857290839e+01  4.4306267347959462e+01  4.4149547615419358e+01  4.3921824954671067e+01  4.3586922747497852e+01  4.3085042598350832e+01  4.2310761687701820e+01  4.1061055757501954e+01  3.8894137490188804e+01  3.4671220757306678e+01  2.4707264571354465e+01  0.0000000000000000e+00  0.0000000000000000e+00  1.4170007918174397e+01  2.3853134866257779e+01  2.9579074728388306e+01  3.2994046092648013e+01  3.5118615183411372e+01  3.6491736334353917e+01  3.7404917723138681e+01  3.8024554886123859e+01  3.8450771975184480e+01  3.8746545486628904e+01  3.8952895806622024e+01  3.9097260232623817e+01  3.9198351442487052e+01  3.9269108640276201e+01  3.9318562155092231e+01  3.9353050824218258e+01  3.9377038052971706e+01  3.9393670111454377e+01  3.9405163873233292e+01  3.9413078939679316e+01  3.9418509915608041e+01  3.9422222777562503e+01  3.9424751729952135e+01  3.9426467975179335e+01  3.9427628462123280e+01  3.9428410352479510e+01  3.9428935309543718e+01  3.9429286550725514e+01  3.9429520771163574e+01  3.9429676445701411e+01  3.9429779584147447e+01  3.9429847703586105e+01  3.9429892558124060e+01  3.9429922006660149e+01  3.9429941285446162e+01  3.9429953871518819e+01  3.9429962066166667e+01  3.9429967387657577e+01  3.9429970834571392e+01  3.9429973061713888e+01  3.9429974497210807e+01  3.9429975420176319e+01  3.9429976012052762e+01  3.9429976390431278e+01  3.9429976631251137e+01  3.9429976783310551e+01  3.9429976877698998e+01  3.9429976933870897e+01  3.9429976963482517e+01  3.9429976972709149e+01  3.9429976963480101e+01  3.9429976933865504e+01  3.9429976877689505e+01  3.9429976783294869e+01  3.9429976631225955e+01  3.9429976390391168e+01  3.9429976011989169e+01  3.9429975420076097e+01  3.9429974497053273e+01  3.9429973061466903e+01  3.9429970834185482e+01  3.9429967387056585e+01  3.9429962065233660e+01  3.9429953870075565e+01  3.9429941283221474e+01  3.9429922003244080e+01  3.9429892552899354e+01  3.9429847695628233e+01  3.9429779572079283e+01  3.9429676427483521e+01  3.9429520743793958e+01  3.9429286509813963e+01  3.9428935248714701e+01  3.9428410262542926e+01  3.9427628329937001e+01  3.9426467782110592e+01  3.9424751449827077e+01  3.9422222373981171e+01  3.9418509338497493e+01  3.9413078120971974e+01  3.9405162721599858e+01  3.9393668506103495e+01  3.9377035836673258e+01  3.9353047795923629e+01  3.9318558062824458e+01  3.9269103175337648e+01  3.9198344236448158e+01  3.9097250858925030e+01  3.8952883788790331e+01  3.8746530314837813e+01  3.8450753131830673e+01  3.8024531878836839e+01  3.7404890119705371e+01  3.6491703787955032e+01  3.5118577427792609e+01  3.2994002874724011e+01  2.9579025632134595e+01  2.3853079006921011e+01  1.4169943986751068e+01  0.0000000000000000e+00  0.0000000000000000e+00  9.3969106772023814e+00  1.7038028072170189e+01  2.2505291214496992e+01  2.6228574515133474e+01  2.8746205784580180e+01  3.0461794426095413e+01  3.1643217746580255e+01  3.2464296977997698e+01  3.3038816639099089e+01  3.3442580521208178e+01  3.3727004906172617e+01  3.3927503622868556e+01  3.4068760112558962e+01  3.4168125559710539e+01  3.4237864623896812e+01  3.4286673319824970e+01  3.4320724336632601e+01  3.4344397510880221e+01  3.4360795745753187e+01  3.4372111998140269e+01  3.4379891412479445e+01  3.4385218888557027e+01  3.4388853278628069e+01  3.4391323252337394e+01  3.4392995601310403e+01  3.4394123743818767e+01  3.4394882035515174e+01  3.4395389937138248e+01  3.4395728961940485e+01  3.4395954505637413e+01  3.4396104066047947e+01  3.4396202927925508e+01  3.4396268076756527e+01  3.4396310881195149e+01  3.4396338923488287e+01  3.4396357243173966e+01  3.4396369178612019e+01  3.4396376934098669e+01  3.4396381960556781e+01  3.4396385210117160e+01  3.4396387305742181e+01  3.4396388653840695e+01  3.4396389518773759e+01  3.4396390071975361e+01  3.4396390424219575e+01  3.4396390646727959e+01  3.4396390784898799e+01  3.4396390867153023e+01  3.4396390910525803e+01  3.4396390924044844e+01  3.4396390910531572e+01  3.4396390867165607e+01  3.4396390784920349e+01  3.4396390646762207e+01  3.4396390424272170e+01  3.4396390072054913e+01  3.4396389518892981e+01  3.4396388654018203e+01  3.4396387306004875e+01  3.4396385210503652e+01  3.4396381961121996e+01  3.4396376934920035e+01  3.4396369179797517e+01  3.4396357244872384e+01  3.4396338925902043e+01  3.4396310884595167e+01  3.4396268081498725e+01  3.4396202934466650e+01  3.4396104074957243e+01  3.4395954517596714e+01  3.4395728977720857e+01  3.4395389957534405e+01  3.4394882061207781e+01  3.4394123775120626e+01  3.4392995637732973e+01  3.4391323291888803e+01  3.4388853316723342e+01  3.4385218916386620e+01  3.4379891414647794e+01  3.4372111949357233e+01  3.4360795606355197e+01  3.4344397220984199e+01  3.4320723808819075e+01  3.4286672430429874e+01  3.4237863203296484e+01  3.4168123382431382e+01  3.4068756888623255e+01  3.3927498992432497e+01  3.3726998440068535e+01  3.3442571730179345e+01  3.3038804993879396e+01  3.2464281940368849e+01  3.1643198807549211e+01  3.0461771141020428e+01  2.8746177786887767e+01  2.6228541482884474e+01  2.2505252766524645e+01  1.7037983605715475e+01  9.3968591753493378e+00  0.0000000000000000e+00  0.0000000000000000e+00  6.7126349002931258e+00  1.2598782386847059e+01  1.7270997913389500e+01  2.0765203814843783e+01  2.3303123880173757e+01  2.5124482941737618e+01  2.6426444795428100e+01  2.7356320133614702e+01  2.8020353060950814e+01  2.8494346183571444e+01  2.8832331539676215e+01  2.9072915918125805e+01  2.9243763346609519e+01  2.9364738030679913e+01  2.9450116322991796e+01  2.9510155347071898e+01  2.9552214200903556e+01  2.9581560613166261e+01  2.9601953943596204e+01  2.9616067586029207e+01  2.9625795197762613e+01  2.9632472489781513e+01  2.9637037502526127e+01  2.9640146059359541e+01  2.9642254609377325e+01  2.9643679410493757e+01  2.9644638611202200e+01  2.9645282026024287e+01  2.9645712098258159e+01  2.9645998584267080e+01  2.9646188788421327e+01  2.9646314661746366e+01  2.9646397701582689e+01  2.9646452317530176e+01  2.9646488133178753e+01  2.9646511553105665e+01  2.9646526825082891e+01  2.9646536757110191e+01  2.9646543199494818e+01  2.9646547367706699e+01  2.9646550057786133e+01  2.9646551789539032e+01  2.9646552901389160e+01  2.9646553612984366e+01  2.9646554066366228e+01  2.9646554352928312e+01  2.9646554530967755e+01  2.9646554637003302e+01  2.9646554692935368e+01  2.9646554710374723e+01  2.9646554692951238e+01  2.9646554637037966e+01  2.9646554531027455e+01  2.9646554353023671e+01  2.9646554066513886e+01  2.9646553613209960e+01  2.9646552901730981e+01  2.9646551790054019e+01  2.9646550058558287e+01  2.9646547368859306e+01  2.9646543201207415e+01  2.9646536759642952e+01  2.9646526828810224e+01  2.9646511558562750e+01  2.9646488141124767e+01  2.9646452329033416e+01  2.9646397718133230e+01  2.9646314685402938e+01  2.9646188821998258e+01  2.9645998631566716e+01  2.9645712164350915e+01  2.9645282117571877e+01  2.9644638736808783e+01  2.9643679581053089e+01  2.9642254838357310e+01  2.9640146362929205e+01  2.9637037899380076e+01  2.9632473000455718e+01  2.9625795843162170e+01  2.9616068384814564e+01  2.9601954908011688e+01  2.9581561742870797e+01  2.9552215474414819e+01  2.9510156710610882e+01  2.9450117676874580e+01  2.9364739213995392e+01  2.9243764121771044e+01  2.9072915957942065e+01  2.8832330420684507e+01  2.8494343390171952e+01  2.8020348004817897e+01  2.7356312191209607e+01  2.6426433362464927e+01  2.5124467496826092e+01  2.3303104041365405e+01  2.0765179365362297e+01  1.7270968771777437e+01  1.2598748503725441e+01  6.7125960589598224e+00  0.0000000000000000e+00  0.0000000000000000e+00  4.9859343867186112e+00  9.5297482586481870e+00  1.3359848578778031e+01  1.6410815257247059e+01  1.8753352547072186e+01  2.0511917441097378e+01  2.1814190542652739e+01  2.2770232164074670e+01  2.3467821971084007e+01  2.3974346389309698e+01  2.4340524785004078e+01  2.4604119289499398e+01  2.4793057822768546e+01  2.4927895034570483e+01  2.5023695229022007e+01  2.5091453309011186e+01  2.5139159723280805e+01  2.5172595330609354e+01  2.5195922717461674e+01  2.5212124595672012e+01  2.5223327573700434e+01  2.5231040224551080e+01  2.5236327285934674e+01  2.5239936459979457e+01  2.5242390203294665e+01  2.5244051798059871e+01  2.5245172638232809e+01  2.5245925877932979e+01  2.5246430239487079e+01  2.5246766764936819e+01  2.5246990538214934e+01  2.5247138844373733e+01  2.5247236819535321e+01  2.5247301343730641e+01  2.5247343710139926e+01  2.5247371446813620e+01  2.5247389554391340e+01  2.5247401343398160e+01  2.5247408998301271e+01  2.5247413955968931e+01  2.5247417158617328e+01  2.5247419222235752e+01  2.5247420548323177e+01  2.5247421397746063e+01  2.5247421939373616e+01  2.5247422281965701e+01  2.5247422494958393e+01  2.5247422621882922e+01  2.5247422688862468e+01  2.5247422709753600e+01  2.5247422688889870e+01  2.5247422621942700e+01  2.5247422495061375e+01  2.5247422282130369e+01  2.5247421939629074e+01  2.5247421398136844e+01  2.5247420548916221e+01  2.5247419223130844e+01  2.5247417159962072e+01  2.5247413957980473e+01  2.5247409001297143e+01  2.5247401347840178e+01  2.5247389560946942e+01  2.5247371456441286e+01  2.5247343724206679e+01  2.5247301364171822e+01  2.5247236849069203e+01  2.5247138886785912e+01  2.5246990598728203e+01  2.5246766850684256e+01  2.5246430360102622e+01  2.5245926046268725e+01  2.5245172871199131e+01  2.5244052117564490e+01  2.5242390637220780e+01  2.5239937043093548e+01  2.5236328060543656e+01  2.5231041240636465e+01  2.5223328888146270e+01  2.5212126270081981e+01  2.5195924813948750e+01  2.5172597904872987e+01  2.5139162814313934e+01  2.5091456924974455e+01  2.5023699329270041e+01  2.4927899508597012e+01  2.4793062468003598e+01  2.4604123791404259e+01  2.4340528704578979e+01  2.3974349164540996e+01  2.3467822939328773e+01  2.2770230611009818e+01  2.1814185779299173e+01  2.0511908903120602e+01  1.8753339900776133e+01  1.6410798486933253e+01  1.3359828024469033e+01  9.5297245750084318e+00  4.9859084063908643e+00  0.0000000000000000e+00  0.0000000000000000e+00  3.7801932748732283e+00  7.3022114963322489e+00  1.0383345216955753e+01  1.2945385526925385e+01  1.4996378225754306e+01  1.6594105381186495e+01  1.7814830487987997e+01  1.8734451169522433e+01  1.9419845587319788e+01  1.9926273328433737e+01  2.0297712688059708e+01  2.0568347573325649e+01  2.0764326447842013e+01  2.0905416216629170e+01  2.1006419024274663e+01  2.1078329615232377e+01  2.1129254903085563e+01  2.1165131482607805e+01  2.1190278137289230e+01  2.1207816793103092e+01  2.1219990295399921e+01  2.1228400279247008e+01  2.1234183810920971e+01  2.1238143560490276e+01  2.1240843022645098e+01  2.1242675672804118e+01  2.1243914845586687e+01  2.1244749468539165e+01  2.1245309496792391e+01  2.1245683904120614e+01  2.1245933332393420e+01  2.1246098933992158e+01  2.1246208518664204e+01  2.1246280803766020e+01  2.1246328338057477e+01  2.1246359503139477e+01  2.1246379877051663e+01  2.1246393159102663e+01  2.1246401794393122e+01  2.1246407393787266e+01  2.1246411015196692e+01  2.1246413351244914e+01  2.1246414854000228e+01  2.1246415817569215e+01  2.1246416432574637e+01  2.1246416821929824e+01  2.1246417064191540e+01  2.1246417208656521e+01  2.1246417284931812e+01  2.1246417308731335e+01  2.1246417284971574e+01  2.1246417208743306e+01  2.1246417064340989e+01  2.1246416822168786e+01  2.1246416432945360e+01  2.1246415818136260e+01  2.1246414854860792e+01  2.1246413352543804e+01  2.1246411017148251e+01  2.1246407396706825e+01  2.1246401798742038e+01  2.1246393165552234e+01  2.1246379886572765e+01  2.1246359517127285e+01  2.1246328358503614e+01  2.1246280833493245e+01  2.1246208561642504e+01  2.1246098995759052e+01  2.1245933420603702e+01  2.1245684029253759e+01  2.1245309673042954e+01  2.1244749714910569e+01  2.1243915187193881e+01  2.1242676142364008e+01  2.1240843662091013e+01  2.1238144422581318e+01  2.1234184960626120e+01  2.1228401794563887e+01  2.1219992267121253e+01  2.1207819322883072e+01  2.1190281333209803e+01  2.1165135451345922e+01  2.1129259737804041e+01  2.1078335378548836e+01  2.1006425726216083e+01  2.0905423788456858e+01  2.0764334714100496e+01  2.0568356226388445e+01  2.0297721271591225e+01  1.9926281238072285e+01  1.9419852097709196e+01  1.8734455495536839e+01  1.7814831883561897e+01  1.6594103271044116e+01  1.4996372354189933e+01  1.2945376096100388e+01  1.0383332979284303e+01  7.3021977668299929e+00  3.7801798462662473e+00  0.0000000000000000e+00  0.0000000000000000e+00  2.8951537413317787e+00  5.6301530971390497e+00  8.0817374435061478e+00  1.0182391975757970e+01  1.1917518364838813e+01  1.3309953579858808e+01  1.4402600300511018e+01  1.5245086747821903e+01  1.5885632446753942e+01  1.6367036362087124e+01  1.6725282068906083e+01  1.6989570334708294e+01  1.7183017704580934e+01  1.7323589786966110e+01  1.7425047537625680e+01  1.7497805075477874e+01  1.7549662016735063e+01  1.7586405783692971e+01  1.7612294364235602e+01  1.7630435829627455e+01  1.7643082087341469e+01  1.7651853282942824e+01  1.7657907258680602e+01  1.7662066198290546e+01  1.7664910376375918e+01  1.7666846944429047e+01  1.7668159983392872e+01  1.7669046641037617e+01  1.7669643030608068e+01  1.7670042662114302e+01  1.7670309472398532e+01  1.7670486978740108e+01  1.7670604670680252e+01  1.7670682447829719e+01  1.7670733684223194e+01  1.7670767333285447e+01  1.7670789366593660e+01  1.7670803752615640e+01  1.7670813119487139e+01  1.7670819201876213e+01  1.7670823141015184e+01  1.7670825685337000e+01  1.7670827324120150e+01  1.7670828376165858e+01  1.7670829048402240e+01  1.7670829474438342e+01  1.7670829739774767e+01  1.7670829898126211e+01  1.7670829981783616e+01  1.7670830007897411e+01  1.7670829981836043e+01  1.7670829898240587e+01  1.7670829739971722e+01  1.7670829474753091e+01  1.7670829048890262e+01  1.7670828376911953e+01  1.7670827325251715e+01  1.7670825687043862e+01  1.7670823143578087e+01  1.7670819205707954e+01  1.7670813125191337e+01  1.7670803761069948e+01  1.7670789379066584e+01  1.7670767351598911e+01  1.7670733710976595e+01  1.7670682486705356e+01  1.7670604726854929e+01  1.7670487059432190e+01  1.7670309587584370e+01  1.7670042825450587e+01  1.7669643260595400e+01  1.7669046962453805e+01  1.7668160429007667e+01  1.7666847556980681e+01  1.7664911210738051e+01  1.7662067323680837e+01  1.7657908760652731e+01  1.7651855264760140e+01  1.7643084670156266e+01  1.7630439150698766e+01  1.7612298572239524e+01  1.7586411030065726e+01  1.7549668442018731e+01  1.7497812789917731e+01  1.7425056595920204e+01  1.7323600158215459e+01  1.7183029240181749e+01  1.6989582739150848e+01  1.6725294880879837e+01  1.6367048955439397e+01  1.5885644061792673e+01  1.5245096562081409e+01  1.4402607543322448e+01  1.3309957686352240e+01  1.1917519153074899e+01  1.0182389818117063e+01  8.0817333947607910e+00  5.6301489423223723e+00  2.8951519426654251e+00  0.0000000000000000e+00  0.0000000000000000e+00  2.2259307463653624e+00  4.3482616386507766e+00  6.2828493559848955e+00  7.9767473646759957e+00  9.4095278964962432e+00  1.0586977233932302e+01  1.1531876782071510e+01  1.2275472346396235e+01  1.2851218889090285e+01  1.3290926451635773e+01  1.3622788160631188e+01  1.3870660363456171e+01  1.4054078541475599e+01  1.4188651953620550e+01  1.4286614554970878e+01  1.4357404732743516e+01  1.4408207361886596e+01  1.4444428403457236e+01  1.4470093212644748e+01  1.4488170913443843e+01  1.4500832570211889e