<?xml version="1.0"?>
<VTKFile type="UnstructuredGrid"  version="0.1"  >
<UnstructuredGrid>
<Piece  NumberOfPoints="10201" NumberOfCells="20000">
<Points>
<DataArray  type="Float64"  NumberOfComponents="3"  format="ascii">0 0 0  0.01 0 0  0.02 0 0  0.03 0 0  0.04 0 0  0.05 0 0  0.06 0 0  0.07000000000000001 0 0  0.08 0 0  0.09 0 0  0.1 0 0  0.11 0 0  0.12 0 0  0.13 0 0  0.14 0 0  0.15 0 0  0.16 0 0  0.17 0 0  0.18 0 0  0.19 0 0  0.2 0 0  0.21 0 0  0.22 0 0  0.23 0 0  0.24 0 0  0.25 0 0  0.26 0 0  0.27 0 0  0.28 0 0  0.29 0 0  0.3 0 0  0.31 0 0  0.32 0 0  0.33 0 0  0.34 0 0  0.35 0 0  0.36 0 0  0.37 0 0  0.38 0 0  0.39 0 0  0.4 0 0  0.41 0 0  0.42 0 0  0.43 0 0  0.44 0 0  0.45 0 0  0.46 0 0  0.47 0 0  0.48 0 0  0.49 0 0  0.5 0 0  0.51 0 0  0.52 0 0  0.53 0 0  0.54 0 0  0.55 0 0  0.5600000000000001 0 0  0.57 0 0  0.58 0 0  0.59 0 0  0.6 0 0  0.61 0 0  0.62 0 0  0.63 0 0  0.64 0 0  0.65 0 0  0.66 0 0  0.67 0 0  0.68 0 0  0.6899999999999999 0 0  0.7 0 0  0.71 0 0  0.72 0 0  0.73 0 0  0.74 0 0  0.75 0 0  0.76 0 0  0.77 0 0  0.78 0 0  0.79 0 0  0.8 0 0  0.8100000000000001 0 0  0.82 0 0  0.83 0 0  0.84 0 0  0.85 0 0  0.86 0 0  0.87 0 0  0.88 0 0  0.89 0 0  0.9 0 0  0.91 0 0  0.92 0 0  0.93 0 0  0.9399999999999999 0 0  0.95 0 0  0.96 0 0  0.97 0 0  0.98 0 0  0.99 0 0  1 0 0  0 0.01 0  0.01 0.01 0  0.02 0.01 0  0.03 0.01 0  0.04 0.01 0  0.05 0.01 0  0.06 0.01 0  0.07000000000000001 0.01 0  0.08 0.01 0  0.09 0.01 0  0.1 0.01 0  0.11 0.01 0  0.12 0.01 0  0.13 0.01 0  0.14 0.01 0  0.15 0.01 0  0.16 0.01 0  0.17 0.01 0  0.18 0.01 0  0.19 0.01 0  0.2 0.01 0  0.21 0.01 0  0.22 0.01 0  0.23 0.01 0  0.24 0.01 0  0.25 0.01 0  0.26 0.01 0  0.27 0.01 0  0.28 0.01 0  0.29 0.01 0  0.3 0.01 0  0.31 0.01 0  0.32 0.01 0  0.33 0.01 0  0.34 0.01 0  0.35 0.01 0  0.36 0.01 0  0.37 0.01 0  0.38 0.01 0  0.39 0.01 0  0.4 0.01 0  0.41 0.01 0  0.42 0.01 0  0.43 0.01 0  0.44 0.01 0  0.45 0.01 0  0.46 0.01 0  0.47 0.01 0  0.48 0.01 0  0.49 0.01 0  0.5 0.01 0  0.51 0.01 0  0.52 0.01 0  0.53 0.01 0  0.54 0.01 0  0.55 0.01 0  0.5600000000000001 0.01 0  0.57 0.01 0  0.58 0.01 0  0.59 0.01 0  0.6 0.01 0  0.61 0.01 0  0.62 0.01 0  0.63 0.01 0  0.64 0.01 0  0.65 0.01 0  0.66 0.01 0  0.67 0.01 0  0.68 0.01 0  0.6899999999999999 0.01 0  0.7 0.01 0  0.71 0.01 0  0.72 0.01 0  0.73 0.01 0  0.74 0.01 0  0.75 0.01 0  0.76 0.01 0  0.77 0.01 0  0.78 0.01 0  0.79 0.01 0  0.8 0.01 0  0.8100000000000001 0.01 0  0.82 0.01 0  0.83 0.01 0  0.84 0.01 0  0.85 0.01 0  0.86 0.01 0  0.87 0.01 0  0.88 0.01 0  0.89 0.01 0  0.9 0.01 0  0.91 0.01 0  0.92 0.01 0  0.93 0.01 0  0.9399999999999999 0.01 0  0.95 0.01 0  0.96 0.01 0  0.97 0.01 0  0.98 0.01 0  0.99 0.01 0  1 0.01 0  0 0.02 0  0.01 0.02 0  0.02 0.02 0  0.03 0.02 0  0.04 0.02 0  0.05 0.02 0  0.06 0.02 0  0.07000000000000001 0.02 0  0.08 0.02 0  0.09 0.02 0  0.1 0.02 0  0.11 0.02 0  0.12 0.02 0  0.13 0.02 0  0.14 0.02 0  0.15 0.02 0  0.16 0.02 0  0.17 0.02 0  0.18 0.02 0  0.19 0.02 0  0.2 0.02 0  0.21 0.02 0  0.22 0.02 0  0.23 0.02 0  0.24 0.02 0  0.25 0.02 0  0.26 0.02 0  0.27 0.02 0  0.28 0.02 0  0.29 0.02 0  0.3 0.02 0  0.31 0.02 0  0.32 0.02 0  0.33 0.02 0  0.34 0.02 0  0.35 0.02 0  0.36 0.02 0  0.37 0.02 0  0.38 0.02 0  0.39 0.02 0  0.4 0.02 0  0.41 0.02 0  0.42 0.02 0  0.43 0.02 0  0.44 0.02 0  0.45 0.02 0  0.46 0.02 0  0.47 0.02 0  0.48 0.02 0  0.49 0.02 0  0.5 0.02 0  0.51 0.02 0  0.52 0.02 0  0.53 0.02 0  0.54 0.02 0  0.55 0.02 0  0.5600000000000001 0.02 0  0.57 0.02 0  0.58 0.02 0  0.59 0.02 0  0.6 0.02 0  0.61 0.02 0  0.62 0.02 0  0.63 0.02 0  0.64 0.02 0  0.65 0.02 0  0.66 0.02 0  0.67 0.02 0  0.68 0.02 0  0.6899999999999999 0.02 0  0.7 0.02 0  0.71 0.02 0  0.72 0.02 0  0.73 0.02 0  0.74 0.02 0  0.75 0.02 0  0.76 0.02 0  0.77 0.02 0  0.78 0.02 0  0.79 0.02 0  0.8 0.02 0  0.8100000000000001 0.02 0  0.82 0.02 0  0.83 0.02 0  0.84 0.02 0  0.85 0.02 0  0.86 0.02 0  0.87 0.02 0  0.88 0.02 0  0.89 0.02 0  0.9 0.02 0  0.91 0.02 0  0.92 0.02 0  0.93 0.02 0  0.9399999999999999 0.02 0  0.95 0.02 0  0.96 0.02 0  0.97 0.02 0  0.98 0.02 0  0.99 0.02 0  1 0.02 0  0 0.03 0  0.01 0.03 0  0.02 0.03 0  0.03 0.03 0  0.04 0.03 0  0.05 0.03 0  0.06 0.03 0  0.07000000000000001 0.03 0  0.08 0.03 0  0.09 0.03 0  0.1 0.03 0  0.11 0.03 0  0.12 0.03 0  0.13 0.03 0  0.14 0.03 0  0.15 0.03 0  0.16 0.03 0  0.17 0.03 0  0.18 0.03 0  0.19 0.03 0  0.2 0.03 0  0.21 0.03 0  0.22 0.03 0  0.23 0.03 0  0.24 0.03 0  0.25 0.03 0  0.26 0.03 0  0.27 0.03 0  0.28 0.03 0  0.29 0.03 0  0.3 0.03 0  0.31 0.03 0  0.32 0.03 0  0.33 0.03 0  0.34 0.03 0  0.35 0.03 0  0.36 0.03 0  0.37 0.03 0  0.38 0.03 0  0.39 0.03 0  0.4 0.03 0  0.41 0.03 0  0.42 0.03 0  0.43 0.03 0  0.44 0.03 0  0.45 0.03 0  0.46 0.03 0  0.47 0.03 0  0.48 0.03 0  0.49 0.03 0  0.5 0.03 0  0.51 0.03 0  0.52 0.03 0  0.53 0.03 0  0.54 0.03 0  0.55 0.03 0  0.5600000000000001 0.03 0  0.57 0.03 0  0.58 0.03 0  0.59 0.03 0  0.6 0.03 0  0.61 0.03 0  0.62 0.03 0  0.63 0.03 0  0.64 0.03 0  0.65 0.03 0  0.66 0.03 0  0.67 0.03 0  0.68 0.03 0  0.6899999999999999 0.03 0  0.7 0.03 0  0.71 0.03 0  0.72 0.03 0  0.73 0.03 0  0.74 0.03 0  0.75 0.03 0  0.76 0.03 0  0.77 0.03 0  0.78 0.03 0  0.79 0.03 0  0.8 0.03 0  0.8100000000000001 0.03 0  0.82 0.03 0  0.83 0.03 0  0.84 0.03 0  0.85 0.03 0  0.86 0.03 0  0.87 0.03 0  0.88 0.03 0  0.89 0.03 0  0.9 0.03 0  0.91 0.03 0  0.92 0.03 0  0.93 0.03 0  0.9399999999999999 0.03 0  0.95 0.03 0  0.96 0.03 0  0.97 0.03 0  0.98 0.03 0  0.99 0.03 0  1 0.03 0  0 0.04 0  0.01 0.04 0  0.02 0.04 0  0.03 0.04 0  0.04 0.04 0  0.05 0.04 0  0.06 0.04 0  0.07000000000000001 0.04 0  0.08 0.04 0  0.09 0.04 0  0.1 0.04 0  0.11 0.04 0  0.12 0.04 0  0.13 0.04 0  0.14 0.04 0  0.15 0.04 0  0.16 0.04 0  0.17 0.04 0  0.18 0.04 0  0.19 0.04 0  0.2 0.04 0  0.21 0.04 0  0.22 0.04 0  0.23 0.04 0  0.24 0.04 0  0.25 0.04 0  0.26 0.04 0  0.27 0.04 0  0.28 0.04 0  0.29 0.04 0  0.3 0.04 0  0.31 0.04 0  0.32 0.04 0  0.33 0.04 0  0.34 0.04 0  0.35 0.04 0  0.36 0.04 0  0.37 0.04 0  0.38 0.04 0  0.39 0.04 0  0.4 0.04 0  0.41 0.04 0  0.42 0.04 0  0.43 0.04 0  0.44 0.04 0  0.45 0.04 0  0.46 0.04 0  0.47 0.04 0  0.48 0.04 0  0.49 0.04 0  0.5 0.04 0  0.51 0.04 0  0.52 0.04 0  0.53 0.04 0  0.54 0.04 0  0.55 0.04 0  0.5600000000000001 0.04 0  0.57 0.04 0  0.58 0.04 0  0.59 0.04 0  0.6 0.04 0  0.61 0.04 0  0.62 0.04 0  0.63 0.04 0  0.64 0.04 0  0.65 0.04 0  0.66 0.04 0  0.67 0.04 0  0.68 0.04 0  0.6899999999999999 0.04 0  0.7 0.04 0  0.71 0.04 0  0.72 0.04 0  0.73 0.04 0  0.74 0.04 0  0.75 0.04 0  0.76 0.04 0  0.77 0.04 0  0.78 0.04 0  0.79 0.04 0  0.8 0.04 0  0.8100000000000001 0.04 0  0.82 0.04 0  0.83 0.04 0  0.84 0.04 0  0.85 0.04 0  0.86 0.04 0  0.87 0.04 0  0.88 0.04 0  0.89 0.04 0  0.9 0.04 0  0.91 0.04 0  0.92 0.04 0  0.93 0.04 0  0.9399999999999999 0.04 0  0.95 0.04 0  0.96 0.04 0  0.97 0.04 0  0.98 0.04 0  0.99 0.04 0  1 0.04 0  0 0.05 0  0.01 0.05 0  0.02 0.05 0  0.03 0.05 0  0.04 0.05 0  0.05 0.05 0  0.06 0.05 0  0.07000000000000001 0.05 0  0.08 0.05 0  0.09 0.05 0  0.1 0.05 0  0.11 0.05 0  0.12 0.05 0  0.13 0.05 0  0.14 0.05 0  0.15 0.05 0  0.16 0.05 0  0.17 0.05 0  0.18 0.05 0  0.19 0.05 0  0.2 0.05 0  0.21 0.05 0  0.22 0.05 0  0.23 0.05 0  0.24 0.05 0  0.25 0.05 0  0.26 0.05 0  0.27 0.05 0  0.28 0.05 0  0.29 0.05 0  0.3 0.05 0  0.31 0.05 0  0.32 0.05 0  0.33 0.05 0  0.34 0.05 0  0.35 0.05 0  0.36 0.05 0  0.37 0.05 0  0.38 0.05 0  0.39 0.05 0  0.4 0.05 0  0.41 0.05 0  0.42 0.05 0  0.43 0.05 0  0.44 0.05 0  0.45 0.05 0  0.46 0.05 0  0.47 0.05 0  0.48 0.05 0  0.49 0.05 0  0.5 0.05 0  0.51 0.05 0  0.52 0.05 0  0.53 0.05 0  0.54 0.05 0  0.55 0.05 0  0.5600000000000001 0.05 0  0.57 0.05 0  0.58 0.05 0  0.59 0.05 0  0.6 0.05 0  0.61 0.05 0  0.62 0.05 0  0.63 0.05 0  0.64 0.05 0  0.65 0.05 0  0.66 0.05 0  0.67 0.05 0  0.68 0.05 0  0.6899999999999999 0.05 0  0.7 0.05 0  0.71 0.05 0  0.72 0.05 0  0.73 0.05 0  0.74 0.05 0  0.75 0.05 0  0.76 0.05 0  0.77 0.05 0  0.78 0.05 0  0.79 0.05 0  0.8 0.05 0  0.8100000000000001 0.05 0  0.82 0.05 0  0.83 0.05 0  0.84 0.05 0  0.85 0.05 0  0.86 0.05 0  0.87 0.05 0  0.88 0.05 0  0.89 0.05 0  0.9 0.05 0  0.91 0.05 0  0.92 0.05 0  0.93 0.05 0  0.9399999999999999 0.05 0  0.95 0.05 0  0.96 0.05 0  0.97 0.05 0  0.98 0.05 0  0.99 0.05 0  1 0.05 0  0 0.06 0  0.01 0.06 0  0.02 0.06 0  0.03 0.06 0  0.04 0.06 0  0.05 0.06 0  0.06 0.06 0  0.07000000000000001 0.06 0  0.08 0.06 0  0.09 0.06 0  0.1 0.06 0  0.11 0.06 0  0.12 0.06 0  0.13 0.06 0  0.14 0.06 0  0.15 0.06 0  0.16 0.06 0  0.17 0.06 0  0.18 0.06 0  0.19 0.06 0  0.2 0.06 0  0.21 0.06 0  0.22 0.06 0  0.23 0.06 0  0.24 0.06 0  0.25 0.06 0  0.26 0.06 0  0.27 0.06 0  0.28 0.06 0  0.29 0.06 0  0.3 0.06 0  0.31 0.06 0  0.32 0.06 0  0.33 0.06 0  0.34 0.06 0  0.35 0.06 0  0.36 0.06 0  0.37 0.06 0  0.38 0.06 0  0.39 0.06 0  0.4 0.06 0  0.41 0.06 0  0.42 0.06 0  0.43 0.06 0  0.44 0.06 0  0.45 0.06 0  0.46 0.06 0  0.47 0.06 0  0.48 0.06 0  0.49 0.06 0  0.5 0.06 0  0.51 0.06 0  0.52 0.06 0  0.53 0.06 0  0.54 0.06 0  0.55 0.06 0  0.5600000000000001 0.06 0  0.57 0.06 0  0.58 0.06 0  0.59 0.06 0  0.6 0.06 0  0.61 0.06 0  0.62 0.06 0  0.63 0.06 0  0.64 0.06 0  0.65 0.06 0  0.66 0.06 0  0.67 0.06 0  0.68 0.06 0  0.6899999999999999 0.06 0  0.7 0.06 0  0.71 0.06 0  0.72 0.06 0  0.73 0.06 0  0.74 0.06 0  0.75 0.06 0  0.76 0.06 0  0.77 0.06 0  0.78 0.06 0  0.79 0.06 0  0.8 0.06 0  0.8100000000000001 0.06 0  0.82 0.06 0  0.83 0.06 0  0.84 0.06 0  0.85 0.06 0  0.86 0.06 0  0.87 0.06 0  0.88 0.06 0  0.89 0.06 0  0.9 0.06 0  0.91 0.06 0  0.92 0.06 0  0.93 0.06 0  0.9399999999999999 0.06 0  0.95 0.06 0  0.96 0.06 0  0.97 0.06 0  0.98 0.06 0  0.99 0.06 0  1 0.06 0  0 0.07000000000000001 0  0.01 0.07000000000000001 0  0.02 0.07000000000000001 0  0.03 0.07000000000000001 0  0.04 0.07000000000000001 0  0.05 0.07000000000000001 0  0.06 0.07000000000000001 0  0.07000000000000001 0.07000000000000001 0  0.08 0.07000000000000001 0  0.09 0.07000000000000001 0  0.1 0.07000000000000001 0  0.11 0.07000000000000001 0  0.12 0.07000000000000001 0  0.13 0.07000000000000001 0  0.14 0.07000000000000001 0  0.15 0.07000000000000001 0  0.16 0.07000000000000001 0  0.17 0.0700
[...]
<PointData  Scalars="f_17"> 
<DataArray  type="Float64"  Name="f_17"  format="ascii">0.0000000000000000e+00  5.0000000000000000e+01  5.0000000000000000e+01  5.0000000000000000e+01  5.0000000000000000e+01  5.0000000000000000e+01  5.0000000000000000e+01  5.0000000000000000e+01  5.0000000000000000e+01  5.0000000000000000e+01  5.0000000000000000e+01  5.0000000000000000e+01  5.0000000000000000e+01  5.0000000000000000e+01  5.0000000000000000e+01  5.0000000000000000e+01  5.0000000000000000e+01  5.0000000000000000e+01  5.0000000000000000e+01  5.0000000000000000e+01  5.0000000000000000e+01  5.0000000000000000e+01  5.0000000000000000e+01  5.0000000000000000e+01  5.0000000000000000e+01  5.0000000000000000e+01  5.0000000000000000e+01  5.0000000000000000e+01  5.0000000000000000e+01  5.0000000000000000e+01  5.0000000000000000e+01  5.0000000000000000e+01  5.0000000000000000e+01  5.0000000000000000e+01  5.0000000000000000e+01  5.0000000000000000e+01  5.0000000000000000e+01  5.0000000000000000e+01  5.0000000000000000e+01  5.0000000000000000e+01  5.0000000000000000e+01  5.0000000000000000e+01  5.0000000000000000e+01  5.0000000000000000e+01  5.0000000000000000e+01  5.0000000000000000e+01  5.0000000000000000e+01  5.0000000000000000e+01  5.0000000000000000e+01  5.0000000000000000e+01  5.0000000000000000e+01  5.0000000000000000e+01  5.0000000000000000e+01  5.0000000000000000e+01  5.0000000000000000e+01  5.0000000000000000e+01  5.0000000000000000e+01  5.0000000000000000e+01  5.0000000000000000e+01  5.0000000000000000e+01  5.0000000000000000e+01  5.0000000000000000e+01  5.0000000000000000e+01  5.0000000000000000e+01  5.0000000000000000e+01  5.0000000000000000e+01  5.0000000000000000e+01  5.0000000000000000e+01  5.0000000000000000e+01  5.0000000000000000e+01  5.0000000000000000e+01  5.0000000000000000e+01  5.0000000000000000e+01  5.0000000000000000e+01  5.0000000000000000e+01  5.0000000000000000e+01  5.0000000000000000e+01  5.0000000000000000e+01  5.0000000000000000e+01  5.0000000000000000e+01  5.0000000000000000e+01  5.0000000000000000e+01  5.0000000000000000e+01  5.0000000000000000e+01  5.0000000000000000e+01  5.0000000000000000e+01  5.0000000000000000e+01  5.0000000000000000e+01  5.0000000000000000e+01  5.0000000000000000e+01  5.0000000000000000e+01  5.0000000000000000e+01  5.0000000000000000e+01  5.0000000000000000e+01  5.0000000000000000e+01  5.0000000000000000e+01  5.0000000000000000e+01  5.0000000000000000e+01  5.0000000000000000e+01  5.0000000000000000e+01  0.0000000000000000e+00  0.0000000000000000e+00  2.4961024549829091e+01  3.5175734362991818e+01  3.9643622623136345e+01  4.2047172051304138e+01  4.3522976944962650e+01  4.4511065830276550e+01  4.5213169103662771e+01  4.5733879364779852e+01  4.6132599292154644e+01  4.6445494644929582e+01  4.6695818873538578e+01  4.6899194391972379e+01  4.7066502360301314e+01  4.7205553529104790e+01  4.7322099697702726e+01  4.7420470246111037e+01  4.7503986263281064e+01  4.7575237854545080e+01  4.7636274572110480e+01  4.7688739129076417e+01  4.7733963167149220e+01  4.7773037075498181e+01  4.7806861714068624e+01  4.7836187293114797e+01  4.7861642989408999e+01  4.7883759783249367e+01  4.7902988267430381e+01  4.7919712680753214e+01  4.7934262074062026e+01  4.7946919275127733e+01  4.7957928146918995e+01  4.7967499510160359e+01  4.7975816011051997e+01  4.7983036148763794e+01  4.7989297628057635e+01  4.7994720165420425e+01  4.7999407849098830e+01  4.8003451132054153e+01  4.8006928520404237e+01  4.8009908007159524e+01  4.8012448291086919e+01  4.8014599812681354e+01  4.8016405632988700e+01  4.8017902176036934e+01  4.8019119851600067e+01  4.8020083571733878e+01  4.8020813171807035e+01  4.8021323744476909e+01  4.8021625893124146e+01  4.8021725909574627e+01  4.8021625879435106e+01  4.8021323716991539e+01  4.8020813130311417e+01  4.8020083515909008e+01  4.8019119781023463e+01  4.8017902090185657e+01  4.8016405531242555e+01  4.8014599694327096e+01  4.8012448155323334e+01  4.8009907853102860e+01  4.8006928347094970e+01  4.8003450938464354e+01  4.7999407634140148e+01  4.7994719927953433e+01  4.7989297366901553e+01  4.7983035862707538e+01  4.7975815698865404e+01  4.7967499170606700e+01  4.7957927778767946e+01  4.7946918877169111e+01  4.7934261645119683e+01  4.7919712219699569e+01  4.7902987773201232e+01  4.7883759254858710e+01  4.7861642425963311e+01  4.7836186693827521e+01  4.7806861078273805e+01  4.7773036402663472e+01  4.7733962456887681e+01  4.7688738381156732e+01  4.7636273786466361e+01  4.7575237031282064e+01  4.7503985402681238e+01  4.7420469348635592e+01  4.7322098763991342e+01  4.7205552559971920e+01  4.7066501356728956e+01  4.6899193355098390e+01  4.6695817804639979e+01  4.6445493545399685e+01  4.6132598163471314e+01  4.5733878208461391e+01  4.5213167921202512e+01  4.4511064623035878e+01  4.3522975713968066e+01  4.2047170796777920e+01  3.9643621343119023e+01  3.5175733048107062e+01  2.4961023157612853e+01  0.0000000000000000e+00  0.0000000000000000e+00  1.4668555989557648e+01  2.4844483058174919e+01  3.1051926449197239e+01  3.4932106838486114e+01  3.7501301936498400e+01  3.9295018390765030e+01  4.0602220939665187e+01  4.1587664804643346e+01  4.2350681576876482e+01  4.2954207468632141e+01  4.3439854525789478e+01  4.3836152656839111e+01  4.4163278187786425e+01  4.4435884805998775e+01  4.4664863162075086e+01  4.4858471181987525e+01  4.5023081512034729e+01  4.5163688634097220e+01  4.5284260871568563e+01  4.5387989770367817e+01  4.5477470050569053e+01  4.5554831634098676e+01  4.5621837986193910e+01  4.5679960384124307e+01  4.5730434721770983e+01  4.5774305468019762e+01  4.5812460054684067e+01  4.5845656049822146e+01  4.5874542832407840e+01  4.5899679032959533e+01  4.5921546682250515e+01  4.5940562777066809e+01  4.5957088801513464e+01  4.5971438616449802e+01  4.5983885035708475e+01  4.5994665337056098e+01  4.6003985902175309e+01  4.6012026138863526e+01  4.6018941806953990e+01  4.6024867844822921e+01  4.6029920774062980e+01  4.6034200744678955e+01  4.6037793271063137e+01  4.6040770699309476e+01  4.6043193438579543e+01  4.6045110982825754e+01  4.6046562743877409e+01  4.6047578712452868e+01  4.6048179959869906e+01  4.6048378989928153e+01  4.6048179947491661e+01  4.6047578687597223e+01  4.6046562706346606e+01  4.6045110932324945e+01  4.6043193374718378e+01  4.6040770621604480e+01  4.6037793178941079e+01  4.6034200637480801e+01  4.6029920651048158e+01  4.6024867705174657e+01  4.6018941649785447e+01  4.6012025963224723e+01  4.6003985707060352e+01  4.5994665121411991e+01  4.5983884798443768e+01  4.5971438356444949e+01  4.5957088517631298e+01  4.5940562468163613e+01  4.5921546347188198e+01  4.5899678670617917e+01  4.5874542441697102e+01  4.5845655629695997e+01  4.5812459604152828e+01  4.5774304986163294e+01  4.5730434207751259e+01  4.5679959837197401e+01  4.5621837405721529e+01  4.5554831019558350e+01  4.5477469401563205e+01  4.5387989086630718e+01  4.5284260152972202e+01  4.5163687880654116e+01  4.5023080723898318e+01  4.4858470359449470e+01  4.4664862305559218e+01  4.4435883916050479e+01  4.4163277265057481e+01  4.3836151702066900e+01  4.3439853539768421e+01  4.2954206452176827e+01  4.2350680530771079e+01  4.1587663729572895e+01  4.0602219836116781e+01  3.9295017258875021e+01  3.7501300775798178e+01  3.4932105647442746e+01  3.1051925224391304e+01  2.4844481793531255e+01  1.4668554684217531e+01  0.0000000000000000e+00  0.0000000000000000e+00  1.0123294813476511e+01  1.8482486039996338e+01  2.4651530517006226e+01  2.9053083897673513e+01  3.2219268344372956e+01  3.4548690463786691e+01  3.6305520627293660e+01  3.7661170138484152e+01  3.8728234112450217e+01  3.9582413146080334e+01  4.0275935924335705e+01  4.0845757562959712e+01  4.1318645681135386e+01  4.1714405745514185e+01  4.2047975265954747e+01  4.2330815481342000e+01  4.2571856766152926e+01  4.2778154155504829e+01  4.2955350547322148e+01  4.3108009750677667e+01  4.3239859814244696e+01  4.3353973443043046e+01  4.3452903599958155e+01  4.3538786713926257e+01  4.3613422155107003e+01  4.3678334102673332e+01  4.3734820196486432e+01  4.3783990160069756e+01  4.3826796735422661e+01  4.3864060666967291e+01  4.3896491037159890e+01  4.3924701939511202e+01  4.3949226241555486e+01  4.3970527016965796e+01  4.3989007095996840e+01  4.4005017085072808e+01  4.4018862131321569e+01  4.4030807650193147e+01  4.4041084189650967e+01  4.4049891569599446e+01  4.4057402407848137e+01  4.4063765122266275e+01  4.4069106481519476e+01  4.4073533762908696e+01  4.4077136564586503e+01  4.4079988310213537e+01  4.4082147476488586e+01  4.4083658567571483e+01  4.4084552854938018e+01  4.4084848896426678e+01  4.4084552843964538e+01  4.4083658545532337e+01  4.4082147443199986e+01  4.4079988265401113e+01  4.4077136507887204e+01  4.4073533693872804e+01  4.4069106399613489e+01  4.4063765026876702e+01  4.4057402298285346e+01  4.4049891445102645e+01  4.4041084049393739e+01  4.4030807493289508e+01  4.4018861956833319e+01  4.4005016892016862e+01  4.3989006883353916e+01  4.3970526783689465e+01  4.3949225986581737e+01  4.3924701661769127e+01  4.3896490735582240e+01  4.3864060340502036e+01  4.3826796383044254e+01  4.3783989780791032e+01  4.3734819789370235e+01  4.3678333666843898e+01  4.3613421689761083e+01  4.3538786218343283e+01  4.3452903073509695e+01  4.3353972885200854e+01  4.3239859224587299e+01  4.3108009128894878e+01  4.2955349893217644e+01  4.2778153468995818e+01  4.2571856047266444e+01  4.2330814730208083e+01  4.2047974482795361e+01  4.1714404930626692e+01  4.1318644834871115e+01  4.0845756685695065e+01  4.0275935016434900e+01  3.9582412207847227e+01  3.8728233144066010e+01  3.7661169139925086e+01  3.6305519598220329e+01  3.4548689403392295e+01  3.2219267251175324e+01  2.9053082769259269e+01  2.4651529349874320e+01  1.8482484830180155e+01  1.0123293558608472e+01  0.0000000000000000e+00  0.0000000000000000e+00  7.6429475241435831e+00  1.4448900673963484e+01  2.0020345040316702e+01  2.4384068064780521e+01  2.7753921201576372e+01  3.0363258934615587e+01  3.2404496790879158e+01  3.4021825415450365e+01  3.5319906254355701e+01  3.6374332841900838e+01  3.7240091371680677e+01  3.7957674106740576e+01  3.8557329455356815e+01  3.9061987797546600e+01  3.9489281997617979e+01  3.9852955672349324e+01  4.0163856623925462e+01  4.0430646920688332e+01  4.0660317289176092e+01  4.0858564682993880e+01  4.1030072960538547e+01  4.1178724076148740e+01  4.1307758821858975e+01  4.1419900506551620e+01  4.1517451099065113e+01  4.1602366693334162e+01  4.1676317287377564e+01  4.1740734547868811e+01  4.1796850288018803e+01  4.1845727704325753e+01  4.1888286919834549e+01  4.1925326014650032e+01  4.1957538451640218e+01  4.1985527600670189e+01  4.2009818910005158e+01  4.2030870155637494e+01  4.2049080108796041e+01  4.2064795891916866e+01  4.2078319238877917e+01  4.2089911832591142e+01  4.2099799859343705e+01  4.2108177892493998e+01  4.2115212196693285e+01  4.2121043526508331e+01  4.2125789479253129e+01  4.2129546450277473e+01  4.2132391229350254e+01  4.2134382268678337e+01  4.2135560646161935e+01  4.2135950741418775e+01  4.2135560636675400e+01  4.2134382249618888e+01  4.2132391200545548e+01  4.2129546411470194e+01  4.2125789430102550e+01  4.2121043466592326e+01  4.2115212125510894e+01  4.2108177809468522e+01  4.2099799763826518e+01  4.2089911723866187e+01  4.2078319116166483e+01  4.2064795754383475e+01  4.2049079955554646e+01  4.2030869985758912e+01  4.2009818722524550e+01  4.1985527394595636e+01  4.1957538225961315e+01  4.1925325768348124e+01  4.1888286651892358e+01  4.1845727413737777e+01  4.1796849973801969e+01  4.1740734209073423e+01  4.1676316923097517e+01  4.1602366302717577e+01  4.1517450681323872e+01  4.1419900060970406e+01  4.1307758347803059e+01  4.1178723573070478e+01  4.1030072427981779e+01  4.0858564120596803e+01  4.0660316696671025e+01  4.0430646297898818e+01  4.0163855970759570e+01  3.9852954988789243e+01  3.9489281283704841e+01  3.9061987053359871e+01  3.8557328680987119e+01  3.7957673302255550e+01  3.7240090537081159e+01  3.6374331977066134e+01  3.5319905358974928e+01  3.4021824488936367e+01  3.2404495832260089e+01  3.0363257942402750e+01  2.7753920173612066e+01  2.4384066998100540e+01  2.0020343931122735e+01  1.4448899517811567e+01  7.6429463159761974e+00  0.0000000000000000e+00  0.0000000000000000e+00  6.0911047580279636e+00  1.1727818663537779e+01  1.6626800819760152e+01  2.0711943011724038e+01  2.4044710604197249e+01  2.6742049857575090e+01  2.8926002530247722e+01  3.0702875745109246e+01  3.2158483838635036e+01  3.3359853015723658e+01  3.4358709504205869e+01  3.5194924524901040e+01  3.5899369865991304e+01  3.6496127241460719e+01  3.7004147841157597e+01  3.7438484848687700e+01  3.7811207064351478e+01  3.8132078321425105e+01  3.8409065796174609e+01  3.8648723195897013e+01  3.8856482048009390e+01  3.9036875061395946e+01  3.9193708904282531e+01  3.9330199013190700e+01  3.9449075667771993e+01  3.9552668141443625e+01  3.9642971987998912e+01  3.9721703253314161e+01  3.9790342471286344e+01  3.9850170617609827e+01  3.9902298685874342e+01  3.9947692169527613e+01  3.9987191446139732e+01  4.0021528842473970e+01  4.0051342992301471e+01  4.0077190970736801e+01  4.0099558589618638e+01  4.0118869161107440e+01  4.0135490976011937e+01  4.0149743695492496e+01  4.0161903816784061e+01  4.0172209343212266e+01  4.0180863764340060e+01  4.0188039432274728e+01  4.0193880403977637e+01  4.0198504806057443e+01  4.0202006767377895e+01  4.0204457955377471e+01  4.0205908743883590e+01  4.0206389033087838e+01  4.0205908735954637e+01  4.0204457939437653e+01  4.0202006743263986e+01  4.0198504773525478e+01  4.0193880362704469e+01  4.0188039381859745e+01  4.0180863704307271e+01  4.0172209273013351e+01  4.0161903735801488e+01  4.0149743603043639e+01  4.0135490871353433e+01  4.0118869043440334e+01  4.0099558458094428e+01  4.0077190824463855e+01  4.0051342830352162e+01  4.0021528663892468e+01  3.9987191249950321e+01  3.9947691954743817e+01  3.9902298451508130e+01  3.9850170362681439e+01  3.9790342194834274e+01  3.9721702954405252e+01  3.9642971665737875e+01  3.9552667794982824e+01  3.9449075296320309e+01  3.9330198616021526e+01  3.9193708480740476e+01  3.9036874610902245e+01  3.8856481570065107e+01  3.8648722690084064e+01  3.8409065262154137e+01  3.8132077758932375e+01  3.7811206473187220e+01  3.7438484228705001e+01  3.7004147192243870e+01  3.6496126563513783e+01  3.5899369158889066e+01  3.5194923788463186e+01  3.4358708738146696e+01  3.3359852219594146e+01  3.2158483011752537e+01  3.0702874886472852e+01  2.8926001638437878e+01  2.6742048930639537e+01  2.4044709639530396e+01  2.0711942005958662e+01  1.6626799768691495e+01  1.1727817562041698e+01  6.0911035997665337e+00  0.0000000000000000e+00  0.0000000000000000e+00  5.0279172600948705e+00  9.7840914542663135e+00  1.4072827264767419e+01  1.7804066852678584e+01  2.0975577700226868e+01  2.3636741534919484e+01  2.5857462629717539e+01  2.7709343945207447e+01  2.9256935877079762e+01  3.0554946007115262e+01  3.1648323103187895e+01  3.2573459040129791e+01  3.3359657367335345e+01  3.4030511793738022e+01  3.4605076488883732e+01  3.5098813765883996e+01  3.5524343706709033e+01  3.5892030619517577e+01  3.6210440019867541e+01  3.6486694794182618e+01  3.6726753555297357e+01  3.6935629133349096e+01  3.7117560987485462e+01  3.7276152056372119e+01  3.7414478054874515e+01  3.7535175317379746e+01  3.7640511847352606e+01  3.7732445145422759e+01  3.7812669566878235e+01  3.7882655337200021e+01  3.7943680881155849e+01  3.7996859759666336e+01  3.8043163231421403e+01  3.8083439242432824e+01  3.8118428480993813e+01  3.8148778006402992e+01  3.8175052858685568e+01  3.8197745976931188e+01  3.8217286690856461e+01  3.8234048000060419e+01  3.8248352815324161e+01  3.8260479304017970e+01  3.8270665455529894e+01  3.8279112961302722e+01  3.8285990486532462e+01  3.8291436396034953e+01  3.8295560984580703e+01  3.8298448251622936e+01  3.8300157251378415e+01  3.8300723041325305e+01  3.8300157245066167e+01  3.8298448238919967e+01  3.8295560965330395e+01  3.8291436370003311e+01  3.8285990453409120e+01  3.8279112920702588e+01  3.8270665406994887e+01  3.8260479247019624e+01  3.8248352749266488e+01  3.8234047924283253e+01  3.8217286604639632e+01  3.8197745879499195e+01  3.8175052749212810e+01  3.8148777884019815e+01  3.8118428344793060e+01  3.8083439091477260e+01  3.8043163064751504e+01  3.7996859576308708e+01  3.7943680680132140e+01  3.7882655117536480e+01  3.7812669327614955e+01  3.7732444885623401e+01  3.7640511566113787e+01  3.7535175013840160e+01  3.7414477728223375e+01  3.7276151705856648e+01  3.7117560612417265e+01  3.6935628733108672e+01  3.6726753129336799e+01  3.6486694342025686e+01  3.6210439541107036e+01  3.5892030113809057e+01  3.5524343173760911e+01  3.5098813205442738e+01  3.4605075900714148e+01  3.4030511177597560e+01  3.3359656722941679e+01  3.2573458367120914e+01  3.1648322401073369e+01  3.0554945275218028e+01  2.9256935114466980e+01  2.7709343150609989e+01  2.5857461801438113e+01  2.3636740670731367e+01  2.0975576797267774e+01  1.7804065907344850e+01  1.4072826272604004e+01  9.7840904098200898e+00  5.0279161566620516e+00  0.0000000000000000e+00  0.0000000000000000e+00  4.2518269571047709e+00  8.3290985207548189e+00  1.2094769243154719e+01  1.5468709038335072e+01  1.8425333745678302e+01  2.0978448642053213e+01  2.3164056605515473e+01  2.5027052206955407e+01  2.6612996019592991e+01  2.7963912844063774e+01  2.9116639990745298e+01  3.0102567069412935e+01  3.0948033148643617e+01  3.1674971481615806e+01  3.2301595147918128e+01  3.2843031058762953e+01  3.3311869015814558e+01  3.3718620989578604e+01  3.4072098057698120e+01  3.4379716646886557e+01  3.4647746164194466e+01  3.4881508974254025e+01  3.5085542043249745e+01  3.5263727912543544e+01  3.5419401181607817e+01  3.5555435429867330e+01  3.5674314487287845e+01  3.5778191146993457e+01  3.5868935766282355e+01  3.5948176692842424e+01  3.6017334052635611e+01  3.6077648121567336e+01  3.6130203256003831e+01  3.6175948162667432e+01  3.6215713134874434e+01  3.6250224760480187e+01  3.6280118510281348e+01  3.6305949538571397e+01  3.6328201965852124e+01  3.6347296864091845e+01  3.6363599124843795e+01  3.6377423357996506e+01  3.6389038942358091e+01  3.6398674327438776e+01  3.6406520667717899e+01  3.6412734855578194e+01  3.6417442006339925e+01  3.6420737437922149e+01  3.6422688178186760e+01  3.6423334024634947e+01  3.6422688173539434e+01  3.6420737428551277e+01  3.6417441992093359e+01  3.6412734836228417e+01  3.6406520642962832e+01  3.6398674296903181e+01  3.6389038905594923e+01  3.6377423314489242e+01  3.6363599074008725e+01  3.6347296805281104e+01  3.6328201898357271e+01  3.6305949461627549e+01  3.6280118423072167e+01  3.6250224662143246e+01  3.6215713024507451e+01  3.6175948039335182e+01  3.6130203118745555e+01  3.6077647969404943e+01  3.6017333884582243e+01  3.5948176507911676e+01  3.5868935563497580e+01  3.5778190925397190e+01  3.5674314245951159e+01  3.5555435167898935e+01  3.5419400898162451e+01  3.5263727606829363e+01  3.5085541714534720e+01  3.4881508621870402e+01  3.4647745787541325e+01  3.4379716245429691e+01  3.4072097630967143e+01  3.3718620537160270e+01  3.3311868537342285e+01  3.2843030553901642e+01  3.2301594616343657e+01  3.1674970922988887e+01  3.0948032562576746e+01  3.0102566455430221e+01  2.9116639348234429e+01  2.7963912172219036e+01  2.6612995317349320e+01  2.5027051472912945e+01  2.3164055837855653e+01  2.0978447838447245e+01  1.8425332903190426e+01  1.5468708153320794e+01  1.2094768311149130e+01  8.3290975363382351e+00  4.2518259137298662e+00  0.0000000000000000e+00  0.0000000000000000e+00  3.6584054292995569e+00  7.1984125883065682e+00  1.0521706342635275e+01  1.3562331533664459e+01  1.6288484326515679e+01  1.8696539024257767e+01  2.0802016420998896e+01  2.2631098295908984e+01  2.4214291527690733e+01  2.5582393292043470e+01  2.6764268638231606e+01  2.7785840986320220e+01  2.8669806408607009e+01  2.9435736514428879e+01  3.0100363175421037e+01  3.0677927308370222e+01  3.1180529676407829e+01  3.1618454302225238e+01  3.2000453143962780e+01  3.2333990090892108e+01  3.2625446835909081e