<?xml version="1.0"?>
<VTKFile type="UnstructuredGrid"  version="0.1"  >
<UnstructuredGrid>
<Piece  NumberOfPoints="10201" NumberOfCells="20000">
<Points>
<DataArray  type="Float64"  NumberOfComponents="3"  format="ascii">0 0 0  0.01 0 0  0.02 0 0  0.03 0 0  0.04 0 0  0.05 0 0  0.06 0 0  0.07000000000000001 0 0  0.08 0 0  0.09 0 0  0.1 0 0  0.11 0 0  0.12 0 0  0.13 0 0  0.14 0 0  0.15 0 0  0.16 0 0  0.17 0 0  0.18 0 0  0.19 0 0  0.2 0 0  0.21 0 0  0.22 0 0  0.23 0 0  0.24 0 0  0.25 0 0  0.26 0 0  0.27 0 0  0.28 0 0  0.29 0 0  0.3 0 0  0.31 0 0  0.32 0 0  0.33 0 0  0.34 0 0  0.35 0 0  0.36 0 0  0.37 0 0  0.38 0 0  0.39 0 0  0.4 0 0  0.41 0 0  0.42 0 0  0.43 0 0  0.44 0 0  0.45 0 0  0.46 0 0  0.47 0 0  0.48 0 0  0.49 0 0  0.5 0 0  0.51 0 0  0.52 0 0  0.53 0 0  0.54 0 0  0.55 0 0  0.5600000000000001 0 0  0.57 0 0  0.58 0 0  0.59 0 0  0.6 0 0  0.61 0 0  0.62 0 0  0.63 0 0  0.64 0 0  0.65 0 0  0.66 0 0  0.67 0 0  0.68 0 0  0.6899999999999999 0 0  0.7 0 0  0.71 0 0  0.72 0 0  0.73 0 0  0.74 0 0  0.75 0 0  0.76 0 0  0.77 0 0  0.78 0 0  0.79 0 0  0.8 0 0  0.8100000000000001 0 0  0.82 0 0  0.83 0 0  0.84 0 0  0.85 0 0  0.86 0 0  0.87 0 0  0.88 0 0  0.89 0 0  0.9 0 0  0.91 0 0  0.92 0 0  0.93 0 0  0.9399999999999999 0 0  0.95 0 0  0.96 0 0  0.97 0 0  0.98 0 0  0.99 0 0  1 0 0  0 0.01 0  0.01 0.01 0  0.02 0.01 0  0.03 0.01 0  0.04 0.01 0  0.05 0.01 0  0.06 0.01 0  0.07000000000000001 0.01 0  0.08 0.01 0  0.09 0.01 0  0.1 0.01 0  0.11 0.01 0  0.12 0.01 0  0.13 0.01 0  0.14 0.01 0  0.15 0.01 0  0.16 0.01 0  0.17 0.01 0  0.18 0.01 0  0.19 0.01 0  0.2 0.01 0  0.21 0.01 0  0.22 0.01 0  0.23 0.01 0  0.24 0.01 0  0.25 0.01 0  0.26 0.01 0  0.27 0.01 0  0.28 0.01 0  0.29 0.01 0  0.3 0.01 0  0.31 0.01 0  0.32 0.01 0  0.33 0.01 0  0.34 0.01 0  0.35 0.01 0  0.36 0.01 0  0.37 0.01 0  0.38 0.01 0  0.39 0.01 0  0.4 0.01 0  0.41 0.01 0  0.42 0.01 0  0.43 0.01 0  0.44 0.01 0  0.45 0.01 0  0.46 0.01 0  0.47 0.01 0  0.48 0.01 0  0.49 0.01 0  0.5 0.01 0  0.51 0.01 0  0.52 0.01 0  0.53 0.01 0  0.54 0.01 0  0.55 0.01 0  0.5600000000000001 0.01 0  0.57 0.01 0  0.58 0.01 0  0.59 0.01 0  0.6 0.01 0  0.61 0.01 0  0.62 0.01 0  0.63 0.01 0  0.64 0.01 0  0.65 0.01 0  0.66 0.01 0  0.67 0.01 0  0.68 0.01 0  0.6899999999999999 0.01 0  0.7 0.01 0  0.71 0.01 0  0.72 0.01 0  0.73 0.01 0  0.74 0.01 0  0.75 0.01 0  0.76 0.01 0  0.77 0.01 0  0.78 0.01 0  0.79 0.01 0  0.8 0.01 0  0.8100000000000001 0.01 0  0.82 0.01 0  0.83 0.01 0  0.84 0.01 0  0.85 0.01 0  0.86 0.01 0  0.87 0.01 0  0.88 0.01 0  0.89 0.01 0  0.9 0.01 0  0.91 0.01 0  0.92 0.01 0  0.93 0.01 0  0.9399999999999999 0.01 0  0.95 0.01 0  0.96 0.01 0  0.97 0.01 0  0.98 0.01 0  0.99 0.01 0  1 0.01 0  0 0.02 0  0.01 0.02 0  0.02 0.02 0  0.03 0.02 0  0.04 0.02 0  0.05 0.02 0  0.06 0.02 0  0.07000000000000001 0.02 0  0.08 0.02 0  0.09 0.02 0  0.1 0.02 0  0.11 0.02 0  0.12 0.02 0  0.13 0.02 0  0.14 0.02 0  0.15 0.02 0  0.16 0.02 0  0.17 0.02 0  0.18 0.02 0  0.19 0.02 0  0.2 0.02 0  0.21 0.02 0  0.22 0.02 0  0.23 0.02 0  0.24 0.02 0  0.25 0.02 0  0.26 0.02 0  0.27 0.02 0  0.28 0.02 0  0.29 0.02 0  0.3 0.02 0  0.31 0.02 0  0.32 0.02 0  0.33 0.02 0  0.34 0.02 0  0.35 0.02 0  0.36 0.02 0  0.37 0.02 0  0.38 0.02 0  0.39 0.02 0  0.4 0.02 0  0.41 0.02 0  0.42 0.02 0  0.43 0.02 0  0.44 0.02 0  0.45 0.02 0  0.46 0.02 0  0.47 0.02 0  0.48 0.02 0  0.49 0.02 0  0.5 0.02 0  0.51 0.02 0  0.52 0.02 0  0.53 0.02 0  0.54 0.02 0  0.55 0.02 0  0.5600000000000001 0.02 0  0.57 0.02 0  0.58 0.02 0  0.59 0.02 0  0.6 0.02 0  0.61 0.02 0  0.62 0.02 0  0.63 0.02 0  0.64 0.02 0  0.65 0.02 0  0.66 0.02 0  0.67 0.02 0  0.68 0.02 0  0.6899999999999999 0.02 0  0.7 0.02 0  0.71 0.02 0  0.72 0.02 0  0.73 0.02 0  0.74 0.02 0  0.75 0.02 0  0.76 0.02 0  0.77 0.02 0  0.78 0.02 0  0.79 0.02 0  0.8 0.02 0  0.8100000000000001 0.02 0  0.82 0.02 0  0.83 0.02 0  0.84 0.02 0  0.85 0.02 0  0.86 0.02 0  0.87 0.02 0  0.88 0.02 0  0.89 0.02 0  0.9 0.02 0  0.91 0.02 0  0.92 0.02 0  0.93 0.02 0  0.9399999999999999 0.02 0  0.95 0.02 0  0.96 0.02 0  0.97 0.02 0  0.98 0.02 0  0.99 0.02 0  1 0.02 0  0 0.03 0  0.01 0.03 0  0.02 0.03 0  0.03 0.03 0  0.04 0.03 0  0.05 0.03 0  0.06 0.03 0  0.07000000000000001 0.03 0  0.08 0.03 0  0.09 0.03 0  0.1 0.03 0  0.11 0.03 0  0.12 0.03 0  0.13 0.03 0  0.14 0.03 0  0.15 0.03 0  0.16 0.03 0  0.17 0.03 0  0.18 0.03 0  0.19 0.03 0  0.2 0.03 0  0.21 0.03 0  0.22 0.03 0  0.23 0.03 0  0.24 0.03 0  0.25 0.03 0  0.26 0.03 0  0.27 0.03 0  0.28 0.03 0  0.29 0.03 0  0.3 0.03 0  0.31 0.03 0  0.32 0.03 0  0.33 0.03 0  0.34 0.03 0  0.35 0.03 0  0.36 0.03 0  0.37 0.03 0  0.38 0.03 0  0.39 0.03 0  0.4 0.03 0  0.41 0.03 0  0.42 0.03 0  0.43 0.03 0  0.44 0.03 0  0.45 0.03 0  0.46 0.03 0  0.47 0.03 0  0.48 0.03 0  0.49 0.03 0  0.5 0.03 0  0.51 0.03 0  0.52 0.03 0  0.53 0.03 0  0.54 0.03 0  0.55 0.03 0  0.5600000000000001 0.03 0  0.57 0.03 0  0.58 0.03 0  0.59 0.03 0  0.6 0.03 0  0.61 0.03 0  0.62 0.03 0  0.63 0.03 0  0.64 0.03 0  0.65 0.03 0  0.66 0.03 0  0.67 0.03 0  0.68 0.03 0  0.6899999999999999 0.03 0  0.7 0.03 0  0.71 0.03 0  0.72 0.03 0  0.73 0.03 0  0.74 0.03 0  0.75 0.03 0  0.76 0.03 0  0.77 0.03 0  0.78 0.03 0  0.79 0.03 0  0.8 0.03 0  0.8100000000000001 0.03 0  0.82 0.03 0  0.83 0.03 0  0.84 0.03 0  0.85 0.03 0  0.86 0.03 0  0.87 0.03 0  0.88 0.03 0  0.89 0.03 0  0.9 0.03 0  0.91 0.03 0  0.92 0.03 0  0.93 0.03 0  0.9399999999999999 0.03 0  0.95 0.03 0  0.96 0.03 0  0.97 0.03 0  0.98 0.03 0  0.99 0.03 0  1 0.03 0  0 0.04 0  0.01 0.04 0  0.02 0.04 0  0.03 0.04 0  0.04 0.04 0  0.05 0.04 0  0.06 0.04 0  0.07000000000000001 0.04 0  0.08 0.04 0  0.09 0.04 0  0.1 0.04 0  0.11 0.04 0  0.12 0.04 0  0.13 0.04 0  0.14 0.04 0  0.15 0.04 0  0.16 0.04 0  0.17 0.04 0  0.18 0.04 0  0.19 0.04 0  0.2 0.04 0  0.21 0.04 0  0.22 0.04 0  0.23 0.04 0  0.24 0.04 0  0.25 0.04 0  0.26 0.04 0  0.27 0.04 0  0.28 0.04 0  0.29 0.04 0  0.3 0.04 0  0.31 0.04 0  0.32 0.04 0  0.33 0.04 0  0.34 0.04 0  0.35 0.04 0  0.36 0.04 0  0.37 0.04 0  0.38 0.04 0  0.39 0.04 0  0.4 0.04 0  0.41 0.04 0  0.42 0.04 0  0.43 0.04 0  0.44 0.04 0  0.45 0.04 0  0.46 0.04 0  0.47 0.04 0  0.48 0.04 0  0.49 0.04 0  0.5 0.04 0  0.51 0.04 0  0.52 0.04 0  0.53 0.04 0  0.54 0.04 0  0.55 0.04 0  0.5600000000000001 0.04 0  0.57 0.04 0  0.58 0.04 0  0.59 0.04 0  0.6 0.04 0  0.61 0.04 0  0.62 0.04 0  0.63 0.04 0  0.64 0.04 0  0.65 0.04 0  0.66 0.04 0  0.67 0.04 0  0.68 0.04 0  0.6899999999999999 0.04 0  0.7 0.04 0  0.71 0.04 0  0.72 0.04 0  0.73 0.04 0  0.74 0.04 0  0.75 0.04 0  0.76 0.04 0  0.77 0.04 0  0.78 0.04 0  0.79 0.04 0  0.8 0.04 0  0.8100000000000001 0.04 0  0.82 0.04 0  0.83 0.04 0  0.84 0.04 0  0.85 0.04 0  0.86 0.04 0  0.87 0.04 0  0.88 0.04 0  0.89 0.04 0  0.9 0.04 0  0.91 0.04 0  0.92 0.04 0  0.93 0.04 0  0.9399999999999999 0.04 0  0.95 0.04 0  0.96 0.04 0  0.97 0.04 0  0.98 0.04 0  0.99 0.04 0  1 0.04 0  0 0.05 0  0.01 0.05 0  0.02 0.05 0  0.03 0.05 0  0.04 0.05 0  0.05 0.05 0  0.06 0.05 0  0.07000000000000001 0.05 0  0.08 0.05 0  0.09 0.05 0  0.1 0.05 0  0.11 0.05 0  0.12 0.05 0  0.13 0.05 0  0.14 0.05 0  0.15 0.05 0  0.16 0.05 0  0.17 0.05 0  0.18 0.05 0  0.19 0.05 0  0.2 0.05 0  0.21 0.05 0  0.22 0.05 0  0.23 0.05 0  0.24 0.05 0  0.25 0.05 0  0.26 0.05 0  0.27 0.05 0  0.28 0.05 0  0.29 0.05 0  0.3 0.05 0  0.31 0.05 0  0.32 0.05 0  0.33 0.05 0  0.34 0.05 0  0.35 0.05 0  0.36 0.05 0  0.37 0.05 0  0.38 0.05 0  0.39 0.05 0  0.4 0.05 0  0.41 0.05 0  0.42 0.05 0  0.43 0.05 0  0.44 0.05 0  0.45 0.05 0  0.46 0.05 0  0.47 0.05 0  0.48 0.05 0  0.49 0.05 0  0.5 0.05 0  0.51 0.05 0  0.52 0.05 0  0.53 0.05 0  0.54 0.05 0  0.55 0.05 0  0.5600000000000001 0.05 0  0.57 0.05 0  0.58 0.05 0  0.59 0.05 0  0.6 0.05 0  0.61 0.05 0  0.62 0.05 0  0.63 0.05 0  0.64 0.05 0  0.65 0.05 0  0.66 0.05 0  0.67 0.05 0  0.68 0.05 0  0.6899999999999999 0.05 0  0.7 0.05 0  0.71 0.05 0  0.72 0.05 0  0.73 0.05 0  0.74 0.05 0  0.75 0.05 0  0.76 0.05 0  0.77 0.05 0  0.78 0.05 0  0.79 0.05 0  0.8 0.05 0  0.8100000000000001 0.05 0  0.82 0.05 0  0.83 0.05 0  0.84 0.05 0  0.85 0.05 0  0.86 0.05 0  0.87 0.05 0  0.88 0.05 0  0.89 0.05 0  0.9 0.05 0  0.91 0.05 0  0.92 0.05 0  0.93 0.05 0  0.9399999999999999 0.05 0  0.95 0.05 0  0.96 0.05 0  0.97 0.05 0  0.98 0.05 0  0.99 0.05 0  1 0.05 0  0 0.06 0  0.01 0.06 0  0.02 0.06 0  0.03 0.06 0  0.04 0.06 0  0.05 0.06 0  0.06 0.06 0  0.07000000000000001 0.06 0  0.08 0.06 0  0.09 0.06 0  0.1 0.06 0  0.11 0.06 0  0.12 0.06 0  0.13 0.06 0  0.14 0.06 0  0.15 0.06 0  0.16 0.06 0  0.17 0.06 0  0.18 0.06 0  0.19 0.06 0  0.2 0.06 0  0.21 0.06 0  0.22 0.06 0  0.23 0.06 0  0.24 0.06 0  0.25 0.06 0  0.26 0.06 0  0.27 0.06 0  0.28 0.06 0  0.29 0.06 0  0.3 0.06 0  0.31 0.06 0  0.32 0.06 0  0.33 0.06 0  0.34 0.06 0  0.35 0.06 0  0.36 0.06 0  0.37 0.06 0  0.38 0.06 0  0.39 0.06 0  0.4 0.06 0  0.41 0.06 0  0.42 0.06 0  0.43 0.06 0  0.44 0.06 0  0.45 0.06 0  0.46 0.06 0  0.47 0.06 0  0.48 0.06 0  0.49 0.06 0  0.5 0.06 0  0.51 0.06 0  0.52 0.06 0  0.53 0.06 0  0.54 0.06 0  0.55 0.06 0  0.5600000000000001 0.06 0  0.57 0.06 0  0.58 0.06 0  0.59 0.06 0  0.6 0.06 0  0.61 0.06 0  0.62 0.06 0  0.63 0.06 0  0.64 0.06 0  0.65 0.06 0  0.66 0.06 0  0.67 0.06 0  0.68 0.06 0  0.6899999999999999 0.06 0  0.7 0.06 0  0.71 0.06 0  0.72 0.06 0  0.73 0.06 0  0.74 0.06 0  0.75 0.06 0  0.76 0.06 0  0.77 0.06 0  0.78 0.06 0  0.79 0.06 0  0.8 0.06 0  0.8100000000000001 0.06 0  0.82 0.06 0  0.83 0.06 0  0.84 0.06 0  0.85 0.06 0  0.86 0.06 0  0.87 0.06 0  0.88 0.06 0  0.89 0.06 0  0.9 0.06 0  0.91 0.06 0  0.92 0.06 0  0.93 0.06 0  0.9399999999999999 0.06 0  0.95 0.06 0  0.96 0.06 0  0.97 0.06 0  0.98 0.06 0  0.99 0.06 0  1 0.06 0  0 0.07000000000000001 0  0.01 0.07000000000000001 0  0.02 0.07000000000000001 0  0.03 0.07000000000000001 0  0.04 0.07000000000000001 0  0.05 0.07000000000000001 0  0.06 0.07000000000000001 0  0.07000000000000001 0.07000000000000001 0  0.08 0.07000000000000001 0  0.09 0.07000000000000001 0  0.1 0.07000000000000001 0  0.11 0.07000000000000001 0  0.12 0.07000000000000001 0  0.13 0.07000000000000001 0  0.14 0.07000000000000001 0  0.15 0.07000000000000001 0  0.16 0.07000000000000001 0  0.17 0.0700
[...]
<PointData  Scalars="f_17"> 
<DataArray  type="Float64"  Name="f_17"  format="ascii">0.0000000000000000e+00  5.0000000000000000e+01  5.0000000000000000e+01  5.0000000000000000e+01  5.0000000000000000e+01  5.0000000000000000e+01  5.0000000000000000e+01  5.0000000000000000e+01  5.0000000000000000e+01  5.0000000000000000e+01  5.0000000000000000e+01  5.0000000000000000e+01  5.0000000000000000e+01  5.0000000000000000e+01  5.0000000000000000e+01  5.0000000000000000e+01  5.0000000000000000e+01  5.0000000000000000e+01  5.0000000000000000e+01  5.0000000000000000e+01  5.0000000000000000e+01  5.0000000000000000e+01  5.0000000000000000e+01  5.0000000000000000e+01  5.0000000000000000e+01  5.0000000000000000e+01  5.0000000000000000e+01  5.0000000000000000e+01  5.0000000000000000e+01  5.0000000000000000e+01  5.0000000000000000e+01  5.0000000000000000e+01  5.0000000000000000e+01  5.0000000000000000e+01  5.0000000000000000e+01  5.0000000000000000e+01  5.0000000000000000e+01  5.0000000000000000e+01  5.0000000000000000e+01  5.0000000000000000e+01  5.0000000000000000e+01  5.0000000000000000e+01  5.0000000000000000e+01  5.0000000000000000e+01  5.0000000000000000e+01  5.0000000000000000e+01  5.0000000000000000e+01  5.0000000000000000e+01  5.0000000000000000e+01  5.0000000000000000e+01  5.0000000000000000e+01  5.0000000000000000e+01  5.0000000000000000e+01  5.0000000000000000e+01  5.0000000000000000e+01  5.0000000000000000e+01  5.0000000000000000e+01  5.0000000000000000e+01  5.0000000000000000e+01  5.0000000000000000e+01  5.0000000000000000e+01  5.0000000000000000e+01  5.0000000000000000e+01  5.0000000000000000e+01  5.0000000000000000e+01  5.0000000000000000e+01  5.0000000000000000e+01  5.0000000000000000e+01  5.0000000000000000e+01  5.0000000000000000e+01  5.0000000000000000e+01  5.0000000000000000e+01  5.0000000000000000e+01  5.0000000000000000e+01  5.0000000000000000e+01  5.0000000000000000e+01  5.0000000000000000e+01  5.0000000000000000e+01  5.0000000000000000e+01  5.0000000000000000e+01  5.0000000000000000e+01  5.0000000000000000e+01  5.0000000000000000e+01  5.0000000000000000e+01  5.0000000000000000e+01  5.0000000000000000e+01  5.0000000000000000e+01  5.0000000000000000e+01  5.0000000000000000e+01  5.0000000000000000e+01  5.0000000000000000e+01  5.0000000000000000e+01  5.0000000000000000e+01  5.0000000000000000e+01  5.0000000000000000e+01  5.0000000000000000e+01  5.0000000000000000e+01  5.0000000000000000e+01  5.0000000000000000e+01  5.0000000000000000e+01  0.0000000000000000e+00  0.0000000000000000e+00  2.4970546385894838e+01  3.5194757456990267e+01  3.9672105316527258e+01  4.2085052214189055e+01  4.3570172381288266e+01  4.4567474817008751e+01  4.5278671054168903e+01  4.5808335608240910e+01  4.6215853960088744e+01  4.6537375654906441e+01  4.6796138999237023e+01  4.7007752407948566e+01  4.7183084249221537e+01  4.7329933738755102e+01  4.7454042434827016e+01  4.7559730794045812e+01  4.7650312310444974e+01  4.7728370821096526e+01  4.7795950922498271e+01  4.7854691658761055e+01  4.7905922252454573e+01  4.7950731876345131e+01  4.7990021320228962e+01  4.8024541805584036e+01  4.8054924529515176e+01  4.8081703423168911e+01  4.8105332876857517e+01  4.8126201685544970e+01  4.8144644123743440e+01  4.8160948817175516e+01  4.8175365906732345e+01  4.8188112876567779e+01  4.8199379328077264e+01  4.8209330915183131e+01  4.8218112607011534e+01  4.8225851407000050e+01  4.8232658629403659e+01  4.8238631812717536e+01  4.8243856333007813e+01  4.8248406767310563e+01  4.8252348047220025e+01  4.8255736434871963e+01  4.8258620347238910e+01  4.8261041049621426e+01  4.8263033235147702e+01  4.8264625503776770e+01  4.8265840751561271e+01  4.8266696478634479e+01  4.8267205022438247e+01  4.8267373721017293e+01  4.8267205009701783e+01  4.8266696453121234e+01  4.8265840713190890e+01  4.8264625452429954e+01  4.8263033170667292e+01  4.8261040971814218e+01  4.8258620255877815e+01  4.8255736329698500e+01  4.8252347927947234e+01  4.8248406633626175e+01  4.8243856184578163e+01  4.8238631649191412e+01  4.8232658450416316e+01  4.8225851212178036e+01  4.8218112395977322e+01  4.8209330687560147e+01  4.8199379083494890e+01  4.8188112614666650e+01  4.8175365627169583e+01  4.8160948519630239e+01  4.8144643807921753e+01  4.8126201351185244e+01  4.8105332523735534e+01  4.8081703051102558e+01  4.8054924138369046e+01  4.8024541395273609e+01  4.7990020890724260e+01  4.7950731427674370e+01  4.7905921784706621e+01  4.7854691172087620e+01  4.7795950417115627e+01  4.7728370297286183e+01  4.7650311768553323e+01  4.7559730234483560e+01  4.7454041858066773e+01  4.7329933145328404e+01  4.7183083639714390e+01  4.7007751782995363e+01  4.6796138359512689e+01  4.6537375001116224e+01  4.6215853292953810e+01  4.5808334928478970e+01  4.5278670362464162e+01  4.4567474113960778e+01  4.3570171667309729e+01  4.2085051489257751e+01  3.9672104579432094e+01  3.5194756702405201e+01  2.4970545589881620e+01  0.0000000000000000e+00  0.0000000000000000e+00  1.4687537458677708e+01  2.4882404636174734e+01  3.1108705115962781e+01  3.5007618752850149e+01  3.7595383256640680e+01  3.9407466350975206e+01  4.0732795172995040e+01  4.1736088896511824e+01  4.2516644832096787e+01  4.3137366872140191e+01  4.3639836875466536e+01  4.4052556845249498e+01  4.4395677608422417e+01  4.4683829858747131e+01  4.4927883832096782e+01  4.5136079666038228e+01  4.5314774866430312e+01  4.5468951419039328e+01  4.5602567767362324e+01  4.5718808142169209e+01  4.5820262439655096e+01  4.5909058155233417e+01  4.5986958612430165e+01  4.6055437102294711e+01  4.6115733543951876e+01  4.6168898286351506e+01  4.6215826329075625e+01  4.6257284320210168e+01  4.6293932049359888e+01  4.6326339702468886e+01  4.6355001822547663e+01  4.6380348687142181e+01  4.6402755642792926e+01  4.6422550810673499e+01  4.6440021483524056e+01  4.6455419463144153e+01  4.6468965533875306e+01  4.6480853226266539e+01  4.6491251993271135e+01  4.6500309896547051e+01  4.6508155881009657e+01  4.6514901700446906e+01  4.6520643544798155e+01  4.6525463409909456e+01  4.6529430242653881e+01  4.6532600887835180e+01  4.6535020857944474e+01  4.6536724942363854e+01  4.6537737668794868e+01  4.6538073626379955e+01  4.6537737657034306e+01  4.6536724918804893e+01  4.6535020822511939e+01  4.6532600840417516e+01  4.6529430183104132e+01  4.6525463338046798e+01  4.6520643460410199e+01  4.6514901603291975e+01  4.6508155770819307e+01  4.6500309773029294e+01  4.6491251856113948e+01  4.6480853075141361e+01  4.6468965368441012e+01  4.6455419283051263e+01  4.6440021288419139e+01  4.6422550600203778e+01  4.6402755416610901e+01  4.6380348444910261e+01  4.6355001563943169e+01  4.6326339427188849e+01  4.6293931757125357e+01  4.6257284010770938e+01  4.6215826002214641e+01  4.6168897941888943e+01  4.6115733181748745e+01  4.6055436722256154e+01  4.5986958214508306e+01  4.5909057739429805e+01  4.5820262006022105e+01  4.5718807690810934e+01  4.5602567298434884e+01  4.5468950932749912e+01  4.5314774363035262e+01  4.5136079145839929e+01  4.4927883295439720e+01  4.4683829306011816e+01  4.4395677040017517e+01  4.4052556261602142e+01  4.3639836277009543e+01  4.3137366259295597e+01  4.2516644205253513e+01  4.1736088255995107e+01  4.0732794519021255e+01  3.9407465683579844e+01  3.7595382575553543e+01  3.5007618057262391e+01  3.1108704404101054e+01  2.4882403904929259e+01  1.4687536708189468e+01  0.0000000000000000e+00  0.0000000000000000e+00  1.0151611563803085e+01  1.8539057692717272e+01  2.4736233235976037e+01  2.9165732957642685e+01  3.2359619352538061e+01  3.4716440966141377e+01  3.6500312081557745e+01  3.7882590231353646e+01  3.8975819395108779e+01  3.9855651958599402e+01  4.0574271576750711e+01  4.1168591738461402e+01  4.1665342024976439e+01  4.2084293601921694e+01  4.2440353524560251e+01  4.2744956494392646e+01  4.3007010298032981e+01  4.3233551326855554e+01  4.3430207737269193e+01  4.3601532422319423e+01  4.3751246230579142e+01  4.3882418242865747e+01  4.3997601205897070e+01  4.4098934547635594e+01  4.4188223637665772e+01  4.4267001421369692e+01  4.4336576822363426e+01  4.4398073103805515e+01  4.4452458532276843e+01  4.4500571084596892e+01  4.4543138503054472e+01  4.4580794687588408e+01  4.4614093180061992e+01  4.4643518322229603e+01  4.4669494538754400e+01  4.4692394098046023e+01  4.4712543628434368e+01  4.4730229609305276e+01  4.4745703011949146e+01  4.4759183229836445e+01  4.4770861410474787e+01  4.4780903279176087e+01  4.4789451527640480e+01  4.4796627826256028e+01  4.4802534507650542e+01  4.4807255959728785e+01  4.4810859758724263e+01  4.4813397566329876e+01  4.4814905809457002e+01  4.4815406156373818e+01  4.4814905798695335e+01  4.4813397544770808e+01  4.4810859726296592e+01  4.4807255916326554e+01  4.4802534453134385e+01  4.4796627760454626e+01  4.4789451450352381e+01  4.4780903190172005e+01  4.4770861309500141e+01  4.4759183116614231e+01  4.4745702886183160e+01  4.4730229470683391e+01  4.4712543476632554e+01  4.4692393932731918e+01  4.4669494359591603e+01  4.4643518128881830e+01  4.4614092972197362e+01  4.4580794464883766e+01  4.4543138265199794e+01  4.4500570831299733e+01  4.4452458263266131e+01  4.4398072818835686e+01  4.4336576521218262e+01  4.4267001103865688e+01  4.4188223303655043e+01  4.4098934197008610e+01  4.3997600838584319e+01  4.3882417858839275e+01  4.3751245829853346e+01  4.3601532004950407e+01  4.3430207303353932e+01  4.3233550876529577e+01  4.3007009831466746e+01  4.2744956011786904e+01  4.2440353026139682e+01  4.2084293087926589e+01  4.1665341495652392e+01  4.1168591194046073e+01  4.0574271017457455e+01  3.9855651384596094e+01  3.8975818806490828e+01  3.7882589628107709e+01  3.6500311463512766e+01  3.4716440332900092e+01  3.2359618703382090e+01  2.9165732291418458e+01  2.4736232551048673e+01  1.8539056987383802e+01  1.0151610837548823e+01  0.0000000000000000e+00  0.0000000000000000e+00  7.6804147757723733e+00  1.4523753255876823e+01  2.0132419124332081e+01  2.4533119270342901e+01  2.7939626210970342e+01  3.0585217617599533e+01  3.2662234814376035e+01  3.4314797308691489e+01  3.5647498894992715e+01  3.6735869324245314e+01  3.7634835214474080e+01  3.8384833754748215e+01  3.9016063026646393e+01  3.9551408026577185e+01  4.0008461323234954e+01  4.0400931419451460e+01  4.0739636227919753e+01  4.1033213144853029e+01  4.1288633386663697e+01  4.1511579457382055e+01  4.1706725681511436e+01  4.1877949210005937e+01  4.2028490540031058e+01  4.2161076939077759e+01  4.2278018303987402e+01  4.2381282317109701e+01  4.2472553895632750e+01  4.2553282610051340e+01  4.2624720803678429e+01  4.2687954462818915e+01  4.2743928389145211e+01  4.2793466858709955e+01  4.2837290678979272e+01  4.2876031350400631e+01  4.2910242884027198e+01  4.2940411708534320e+01  4.2966965009155771e+01  4.2990277770788659e+01  4.3010678742739294e+01  4.3028455499596525e+01  4.3043858738752640e+01  4.3057105928073533e+01  4.3068384395570476e+01  4.3077853935450925e+01  4.3085648990704414e+01  4.3091880460695670e+01  4.3096637172532972e+01  4.3099987046810824e+01  4.3101977981343957e+01  4.3102638470412693e+01  4.3101977971598316e+01  4.3099987027285053e+01  4.3096637143158461e+01  4.3091880421370583e+01  4.3085648941294188e+01  4.3077853875790602e+01  4.3068384325465885e+01  4.3057105847303596e+01  4.3043858647071708e+01  4.3028455396737336e+01  4.3010678628415597e+01  4.2990277644698864e+01  4.2966964870986317e+01  4.2940411557963287e+01  4.2910242720728114e+01  4.2876031174046517e+01  4.2837290489246570e+01  4.2793466655282643e+01  4.2743928171718764e+01  4.2687954231104229e+01  4.2624720557405524e+01  4.2553282348972985e+01  4.2472553619527609e+01  4.2381282025785112e+01  4.2278017997282092e+01  4.2161076616863603e+01  4.2028490202214165e+01  4.1877948856527418e+01  4.1706725312347046e+01  4.1511579072541146e+01  4.1288632986186727e+01  4.1033212728808365e+01  4.0739635796398687e+01  4.0400930972561888e+01  4.0008460861093518e+01  3.9551407549298865e+01  3.9016062534332072e+01  3.8384833247469295e+01  3.7634834692253214e+01  3.6735868787032814e+01  3.5647498342637171e+01  3.4314796740902850e+01  3.2662234230679161e+01  3.0585217017278193e+01  2.7939625593004649e+01  2.4533118633361244e+01  2.0132418466633670e+01  1.4523752575585759e+01  7.6804140709113717e+00  0.0000000000000000e+00  0.0000000000000000e+00  6.1374793509064789e+00  1.1820466396803951e+01  1.6765518957841330e+01  2.0896429136006716e+01  2.4274564611348854e+01  2.7016776588140853e+01  2.9245014997438602e+01  3.1065498927125663e+01  3.2563958991848736e+01  3.3807342460666490e+01  3.4847301831672361e+01  3.5723640165625255e+01  3.6467166964347797e+01  3.7101907771491696e+01  3.7646763901953555e+01  3.8116745075737882e+01  3.8523883093914378e+01  3.8877911246207333e+01  3.9186772552601667e+01  3.9457002825946937e+01  3.9694021781889980e+01  3.9902356171196303e+01  4.0085812283036383e+01  4.0247610438459553e+01  4.0390490713802336e+01  4.0516796709081440e+01  4.0628542426768426e+01  4.0727466055302024e+01  4.0815073521638645e+01  4.0892673991475746e+01  4.0961408986452724e+01  4.1022276406440973e+01  4.1076150457622902e+01  4.1123798268794602e+01  4.1165893811397098e+01  4.1203029610246006e+01  4.1235726632296533e+01  4.1264442663050900e+01  4.1289579419190659e+01  4.1311488597804548e+01  4.1330477024255991e+01  4.1346811030071365e+01  4.1360720167533472e+01  4.1372400347632443e+01  4.1382016471648633e+01  4.1389704613128224e+01  4.1395573795743907e+01  4.1399707403013181e+01  4.1402164247675934e+01  4.1402979321384962e+01  4.1402164238957681e+01  4.1399707385542932e+01  4.1395573769454423e+01  4.1389704577919510e+01  4.1382016427388990e+01  4.1372400294159903e+01  4.1360720104657446e+01  4.1346810957574817e+01  4.1330476941897601e+01  4.1311488505321414e+01  4.1289579316301143e+01  4.1264442549457712e+01  4.1235726507690224e+01  4.1203029474308451e+01  4.1165893663804965e+01  4.1123798109223237e+01  4.1076150285750039e+01  4.1022276221950662e+01  4.0961408789038998e+01  4.0892673780846181e+01  4.0815073297518012e+01  4.0727465817435231e+01  4.0628542174923588e+01  4.0516796443052215e+01  4.0390490433409958e+01  4.0247610143554212e+01  4.0085811973497890e+01  3.9902355846934100e+01  3.9694021442842136e+01  3.9457002472078202e+01  3.9186772183900210e+01  3.8877910862680565e+01  3.8523882695582920e+01  3.8116744662628044e+01  3.7646763474088083e+01  3.7101907328878056e+01  3.6467166506964183e+01  3.5723639693403562e+01  3.4847301344477565e+01  3.3807341958271927e+01  3.2563958473906347e+01  3.1065498393130493e+01  2.9245014446687378e+01  2.7016776019685746e+01  2.4274564023951616e+01  2.0896428528103954e+01  1.6765518327532774e+01  1.1820465741840600e+01  6.1374786685593037e+00  0.0000000000000000e+00  0.0000000000000000e+00  5.0829003399977202e+00  9.8939372966869907e+00  1.4237295559165936e+01  1.8022799129484714e+01  2.1248099698940468e+01  2.3962466319081948e+01  2.6235694413150195e+01  2.8139282586091849e+01  2.9737681989310893e+01  3.1085506631993631e+01  3.2227617879019483e+01  3.3200326802744421e+01  3.4032863110966765e+01  3.4748753919163157e+01  3.5366994264205346e+01  3.5902994924853466e+01  3.6369332109996833e+01  3.6776333905805032e+01  3.7132537175994145e+01  3.7445043576766281e+01  3.7719797700163561e+01  3.7961805293665329e+01  3.8175305346597696e+01  3.8363906566872892e+01  3.8530696261291297e+01  3.8678327725948201e+01  3.8809090812528311e+01  3.8924969248986201e+01  3.9027687471609461e+01  3.9118749103054867e+01  3.9199468737591793e+01  3.9270998333178241e+01  3.9334349232401124e+01  3.9390410620124563e+01  3.9439965059546253e+01  3.9483701618805355e+01  3.9522226998709435e+01  3.9556074992089279e+01  3.9585714541844339e+01  3.9611556614193290e+01  3.9633960063143078e+01  3.9653236629555401e+01  3.9669655191732247e+01  3.9683445362845838e+01  3.9694800512783125e+01  3.9703880277243869e+01  3.9710812604586671e+01  3.9715695380439087e+01  3.9718597661054716e+01  3.9719560538468556e+01  3.9718597653370338e+01  3.9715695365036616e+01  3.9710812581398997e+01  3.9703880246171160e+01  3.9694800473693917e+01  3.9683445315578304e+01  3.9669655136095841e+01  3.9653236565333046e+01  3.9633959990093125e+01  3.9611556532052262e+01  3.9585714450329633e+01  3.9556074890902281e+01  3.9522226887538714e+01  3.9483701497330024e+01  3.9439964927439604e+01  3.9390410477057543e+01  3.9334349078046102e+01  3.9270998167212596e+01  3.9199468559701508e+01  3.9118748912938059e+01  3.9027687268979577e+01  3.8924969033574911e+01  3.8809090584088239e+01  3.8678327484255092e+01  3.8530696006145597e+01  3.8363906298100872e+01  3.8175305064051706e+01  3.7961804997223282e+01  3.7719797389727503e+01  3.7445043252259779e+01  3.7132536837358622e+01  3.6776333552994473e+01  3.6369331742971269e+01  3.5902994543570536e+01  3.5366993868610102e+01  3.4748753509175415e+01  3.4032862686466189e+01  3.3200326363552648e+01  3.2227617424878993e+01  3.1085506162542885e+01  2.9737681504055438e+01  2.8139282084371029e+01  2.6235693894099960e+01  2.3962465781594741e+01  2.1248099141625264e+01  1.8022798550629648e+01  1.4237294956700559e+01  9.8939366681239083e+00  5.0828996823120347e+00  0.0000000000000000e+00  0.0000000000000000e+00  4.3150672538848180e+00  8.4554407152472386e+00  1.2283937015175965e+01  1.5720290201976285e+01  1.8738782971444895e+01  2.1353091037520901e+01  2.3599092113600744e+01  2.5521560771901846e+01  2.7165943462560222e+01  2.8574157382888288e+01  2.9782939332125320e+01  3.0823585996529491e+01  3.1722351523129589e+01  3.2501092575856156e+01  3.3177954221924274e+01  3.3768004095300604e+01  3.4283781528049346e+01  3.4735756817185482e+01  3.5132708070090828e+01  3.5482027275878835e+01  3.5789967692905400e+01  3.6061843514308414e+01  3.6302191138183531e+01  3.6514899711681430e+01  3.6703317135411901e+01  3.6870336464737143e+01  3.7018466624904406e+01  3.7149890540426590e+01  3.7266513132115904e+01  3.7370001125417659e+01  3.7461816213083772e+01  3.7543242800523700e+01  3.7615411314707053e+01  3.7679317862502998e+01  3.7735840870285301e+01  3.7785755214522290e+01  3.7829744255938039e+01  3.7868410112265046e+01  3.7902282442417743e+01  3.7931825964832122e+01  3.7957446892200423e+01  3.7979498431888921e+01  3.7998285474401790e+01  3.8014068570110062e+01  3.8027067276127546e+01  3.8037462939903584e+01  3.8045400973190652e+01  3.8050992659021567e+01  3.8054316524781761e+01  3.8055419306031801e+01  3.8054316518133284e+01  3.8050992645690350e+01  3.8045400953108540e+01  3.8037462912969239e+01  3.8027067242207316e+01  3.8014068529039406e+01  3.7998285425986850e+01  3.7979498375908577e+01  3.7957446828408479e+01  3.7931825892959679e+01  3.7902282362176074e+01  3.7868410023348602e+01  3.7829744158027580e+01  3.7785755107288246e+01  3.7735840753391258e+01  3.7679317735609267e+01  3.7615411177474236e+01  3.7543242652616307e+01  3.7461816054173653e+01  3.7370000955187614e+01  3.7266512950262609e+01  3.7149890346663568e+01  3.7018466418964451e+01  3.6870336246374450e+01  3.6703316904403508e+01  3.6514899467827988e+01  3.6302190881309485e+01  3.6061843244261190e+01  3.5789967409553562e+01  3.5482026979109072e+01  3.5132707759804084e+01  3.4735756493291056e+01  3.4283781190457915e+01  3.3768003743915223e+01  3.3177953856629657e+01  3.2501092196505660e+01  3.1722351129529777e+01  3.0823585588421977e+01  2.9782938909165868e+01  2.8574156944622526e+01  2.7165943008396052e+01  2.5521560301078569e+01  2.3599091625155186e+01  2.1353090530251237e+01  1.8738782443873326e+01  1.5720289652310106e+01  1.2283936441263208e+01  8.4554401145183054e+00  4.3150666232689359e+00  0.0000000000000000e+00  0.0000000000000000e+00  3.7295030756704306e+00  7.3404522918944037e+00  1.0734377554533937e+01  1.3845171007873118e+01  1.6640879178207111e+01  1.9117730752576129e+01  2.1291105850452052e+01  2.3187051380315939e+01  2.4835945951415400e+01  2.6268465795025573e+01  2.7513362984228870e+01  2.8596456487889391e+01  2.9540346917743214e+01  3.0364519784491375e+01  3.1085630498015718e+01  3.1717853328223423e+01  3.2273232287919001e+01  3.2762004533271742e+01  3.3192884935570348e+01  3.3573309885486879e+01  3.3909642891918359e