<?xml version="1.0"?>
<VTKFile type="UnstructuredGrid"  version="0.1"  >
<UnstructuredGrid>
<Piece  NumberOfPoints="10201" NumberOfCells="20000">
<Points>
<DataArray  type="Float64"  NumberOfComponents="3"  format="ascii">0 0 0  0.01 0 0  0.02 0 0  0.03 0 0  0.04 0 0  0.05 0 0  0.06 0 0  0.07000000000000001 0 0  0.08 0 0  0.09 0 0  0.1 0 0  0.11 0 0  0.12 0 0  0.13 0 0  0.14 0 0  0.15 0 0  0.16 0 0  0.17 0 0  0.18 0 0  0.19 0 0  0.2 0 0  0.21 0 0  0.22 0 0  0.23 0 0  0.24 0 0  0.25 0 0  0.26 0 0  0.27 0 0  0.28 0 0  0.29 0 0  0.3 0 0  0.31 0 0  0.32 0 0  0.33 0 0  0.34 0 0  0.35 0 0  0.36 0 0  0.37 0 0  0.38 0 0  0.39 0 0  0.4 0 0  0.41 0 0  0.42 0 0  0.43 0 0  0.44 0 0  0.45 0 0  0.46 0 0  0.47 0 0  0.48 0 0  0.49 0 0  0.5 0 0  0.51 0 0  0.52 0 0  0.53 0 0  0.54 0 0  0.55 0 0  0.5600000000000001 0 0  0.57 0 0  0.58 0 0  0.59 0 0  0.6 0 0  0.61 0 0  0.62 0 0  0.63 0 0  0.64 0 0  0.65 0 0  0.66 0 0  0.67 0 0  0.68 0 0  0.6899999999999999 0 0  0.7 0 0  0.71 0 0  0.72 0 0  0.73 0 0  0.74 0 0  0.75 0 0  0.76 0 0  0.77 0 0  0.78 0 0  0.79 0 0  0.8 0 0  0.8100000000000001 0 0  0.82 0 0  0.83 0 0  0.84 0 0  0.85 0 0  0.86 0 0  0.87 0 0  0.88 0 0  0.89 0 0  0.9 0 0  0.91 0 0  0.92 0 0  0.93 0 0  0.9399999999999999 0 0  0.95 0 0  0.96 0 0  0.97 0 0  0.98 0 0  0.99 0 0  1 0 0  0 0.01 0  0.01 0.01 0  0.02 0.01 0  0.03 0.01 0  0.04 0.01 0  0.05 0.01 0  0.06 0.01 0  0.07000000000000001 0.01 0  0.08 0.01 0  0.09 0.01 0  0.1 0.01 0  0.11 0.01 0  0.12 0.01 0  0.13 0.01 0  0.14 0.01 0  0.15 0.01 0  0.16 0.01 0  0.17 0.01 0  0.18 0.01 0  0.19 0.01 0  0.2 0.01 0  0.21 0.01 0  0.22 0.01 0  0.23 0.01 0  0.24 0.01 0  0.25 0.01 0  0.26 0.01 0  0.27 0.01 0  0.28 0.01 0  0.29 0.01 0  0.3 0.01 0  0.31 0.01 0  0.32 0.01 0  0.33 0.01 0  0.34 0.01 0  0.35 0.01 0  0.36 0.01 0  0.37 0.01 0  0.38 0.01 0  0.39 0.01 0  0.4 0.01 0  0.41 0.01 0  0.42 0.01 0  0.43 0.01 0  0.44 0.01 0  0.45 0.01 0  0.46 0.01 0  0.47 0.01 0  0.48 0.01 0  0.49 0.01 0  0.5 0.01 0  0.51 0.01 0  0.52 0.01 0  0.53 0.01 0  0.54 0.01 0  0.55 0.01 0  0.5600000000000001 0.01 0  0.57 0.01 0  0.58 0.01 0  0.59 0.01 0  0.6 0.01 0  0.61 0.01 0  0.62 0.01 0  0.63 0.01 0  0.64 0.01 0  0.65 0.01 0  0.66 0.01 0  0.67 0.01 0  0.68 0.01 0  0.6899999999999999 0.01 0  0.7 0.01 0  0.71 0.01 0  0.72 0.01 0  0.73 0.01 0  0.74 0.01 0  0.75 0.01 0  0.76 0.01 0  0.77 0.01 0  0.78 0.01 0  0.79 0.01 0  0.8 0.01 0  0.8100000000000001 0.01 0  0.82 0.01 0  0.83 0.01 0  0.84 0.01 0  0.85 0.01 0  0.86 0.01 0  0.87 0.01 0  0.88 0.01 0  0.89 0.01 0  0.9 0.01 0  0.91 0.01 0  0.92 0.01 0  0.93 0.01 0  0.9399999999999999 0.01 0  0.95 0.01 0  0.96 0.01 0  0.97 0.01 0  0.98 0.01 0  0.99 0.01 0  1 0.01 0  0 0.02 0  0.01 0.02 0  0.02 0.02 0  0.03 0.02 0  0.04 0.02 0  0.05 0.02 0  0.06 0.02 0  0.07000000000000001 0.02 0  0.08 0.02 0  0.09 0.02 0  0.1 0.02 0  0.11 0.02 0  0.12 0.02 0  0.13 0.02 0  0.14 0.02 0  0.15 0.02 0  0.16 0.02 0  0.17 0.02 0  0.18 0.02 0  0.19 0.02 0  0.2 0.02 0  0.21 0.02 0  0.22 0.02 0  0.23 0.02 0  0.24 0.02 0  0.25 0.02 0  0.26 0.02 0  0.27 0.02 0  0.28 0.02 0  0.29 0.02 0  0.3 0.02 0  0.31 0.02 0  0.32 0.02 0  0.33 0.02 0  0.34 0.02 0  0.35 0.02 0  0.36 0.02 0  0.37 0.02 0  0.38 0.02 0  0.39 0.02 0  0.4 0.02 0  0.41 0.02 0  0.42 0.02 0  0.43 0.02 0  0.44 0.02 0  0.45 0.02 0  0.46 0.02 0  0.47 0.02 0  0.48 0.02 0  0.49 0.02 0  0.5 0.02 0  0.51 0.02 0  0.52 0.02 0  0.53 0.02 0  0.54 0.02 0  0.55 0.02 0  0.5600000000000001 0.02 0  0.57 0.02 0  0.58 0.02 0  0.59 0.02 0  0.6 0.02 0  0.61 0.02 0  0.62 0.02 0  0.63 0.02 0  0.64 0.02 0  0.65 0.02 0  0.66 0.02 0  0.67 0.02 0  0.68 0.02 0  0.6899999999999999 0.02 0  0.7 0.02 0  0.71 0.02 0  0.72 0.02 0  0.73 0.02 0  0.74 0.02 0  0.75 0.02 0  0.76 0.02 0  0.77 0.02 0  0.78 0.02 0  0.79 0.02 0  0.8 0.02 0  0.8100000000000001 0.02 0  0.82 0.02 0  0.83 0.02 0  0.84 0.02 0  0.85 0.02 0  0.86 0.02 0  0.87 0.02 0  0.88 0.02 0  0.89 0.02 0  0.9 0.02 0  0.91 0.02 0  0.92 0.02 0  0.93 0.02 0  0.9399999999999999 0.02 0  0.95 0.02 0  0.96 0.02 0  0.97 0.02 0  0.98 0.02 0  0.99 0.02 0  1 0.02 0  0 0.03 0  0.01 0.03 0  0.02 0.03 0  0.03 0.03 0  0.04 0.03 0  0.05 0.03 0  0.06 0.03 0  0.07000000000000001 0.03 0  0.08 0.03 0  0.09 0.03 0  0.1 0.03 0  0.11 0.03 0  0.12 0.03 0  0.13 0.03 0  0.14 0.03 0  0.15 0.03 0  0.16 0.03 0  0.17 0.03 0  0.18 0.03 0  0.19 0.03 0  0.2 0.03 0  0.21 0.03 0  0.22 0.03 0  0.23 0.03 0  0.24 0.03 0  0.25 0.03 0  0.26 0.03 0  0.27 0.03 0  0.28 0.03 0  0.29 0.03 0  0.3 0.03 0  0.31 0.03 0  0.32 0.03 0  0.33 0.03 0  0.34 0.03 0  0.35 0.03 0  0.36 0.03 0  0.37 0.03 0  0.38 0.03 0  0.39 0.03 0  0.4 0.03 0  0.41 0.03 0  0.42 0.03 0  0.43 0.03 0  0.44 0.03 0  0.45 0.03 0  0.46 0.03 0  0.47 0.03 0  0.48 0.03 0  0.49 0.03 0  0.5 0.03 0  0.51 0.03 0  0.52 0.03 0  0.53 0.03 0  0.54 0.03 0  0.55 0.03 0  0.5600000000000001 0.03 0  0.57 0.03 0  0.58 0.03 0  0.59 0.03 0  0.6 0.03 0  0.61 0.03 0  0.62 0.03 0  0.63 0.03 0  0.64 0.03 0  0.65 0.03 0  0.66 0.03 0  0.67 0.03 0  0.68 0.03 0  0.6899999999999999 0.03 0  0.7 0.03 0  0.71 0.03 0  0.72 0.03 0  0.73 0.03 0  0.74 0.03 0  0.75 0.03 0  0.76 0.03 0  0.77 0.03 0  0.78 0.03 0  0.79 0.03 0  0.8 0.03 0  0.8100000000000001 0.03 0  0.82 0.03 0  0.83 0.03 0  0.84 0.03 0  0.85 0.03 0  0.86 0.03 0  0.87 0.03 0  0.88 0.03 0  0.89 0.03 0  0.9 0.03 0  0.91 0.03 0  0.92 0.03 0  0.93 0.03 0  0.9399999999999999 0.03 0  0.95 0.03 0  0.96 0.03 0  0.97 0.03 0  0.98 0.03 0  0.99 0.03 0  1 0.03 0  0 0.04 0  0.01 0.04 0  0.02 0.04 0  0.03 0.04 0  0.04 0.04 0  0.05 0.04 0  0.06 0.04 0  0.07000000000000001 0.04 0  0.08 0.04 0  0.09 0.04 0  0.1 0.04 0  0.11 0.04 0  0.12 0.04 0  0.13 0.04 0  0.14 0.04 0  0.15 0.04 0  0.16 0.04 0  0.17 0.04 0  0.18 0.04 0  0.19 0.04 0  0.2 0.04 0  0.21 0.04 0  0.22 0.04 0  0.23 0.04 0  0.24 0.04 0  0.25 0.04 0  0.26 0.04 0  0.27 0.04 0  0.28 0.04 0  0.29 0.04 0  0.3 0.04 0  0.31 0.04 0  0.32 0.04 0  0.33 0.04 0  0.34 0.04 0  0.35 0.04 0  0.36 0.04 0  0.37 0.04 0  0.38 0.04 0  0.39 0.04 0  0.4 0.04 0  0.41 0.04 0  0.42 0.04 0  0.43 0.04 0  0.44 0.04 0  0.45 0.04 0  0.46 0.04 0  0.47 0.04 0  0.48 0.04 0  0.49 0.04 0  0.5 0.04 0  0.51 0.04 0  0.52 0.04 0  0.53 0.04 0  0.54 0.04 0  0.55 0.04 0  0.5600000000000001 0.04 0  0.57 0.04 0  0.58 0.04 0  0.59 0.04 0  0.6 0.04 0  0.61 0.04 0  0.62 0.04 0  0.63 0.04 0  0.64 0.04 0  0.65 0.04 0  0.66 0.04 0  0.67 0.04 0  0.68 0.04 0  0.6899999999999999 0.04 0  0.7 0.04 0  0.71 0.04 0  0.72 0.04 0  0.73 0.04 0  0.74 0.04 0  0.75 0.04 0  0.76 0.04 0  0.77 0.04 0  0.78 0.04 0  0.79 0.04 0  0.8 0.04 0  0.8100000000000001 0.04 0  0.82 0.04 0  0.83 0.04 0  0.84 0.04 0  0.85 0.04 0  0.86 0.04 0  0.87 0.04 0  0.88 0.04 0  0.89 0.04 0  0.9 0.04 0  0.91 0.04 0  0.92 0.04 0  0.93 0.04 0  0.9399999999999999 0.04 0  0.95 0.04 0  0.96 0.04 0  0.97 0.04 0  0.98 0.04 0  0.99 0.04 0  1 0.04 0  0 0.05 0  0.01 0.05 0  0.02 0.05 0  0.03 0.05 0  0.04 0.05 0  0.05 0.05 0  0.06 0.05 0  0.07000000000000001 0.05 0  0.08 0.05 0  0.09 0.05 0  0.1 0.05 0  0.11 0.05 0  0.12 0.05 0  0.13 0.05 0  0.14 0.05 0  0.15 0.05 0  0.16 0.05 0  0.17 0.05 0  0.18 0.05 0  0.19 0.05 0  0.2 0.05 0  0.21 0.05 0  0.22 0.05 0  0.23 0.05 0  0.24 0.05 0  0.25 0.05 0  0.26 0.05 0  0.27 0.05 0  0.28 0.05 0  0.29 0.05 0  0.3 0.05 0  0.31 0.05 0  0.32 0.05 0  0.33 0.05 0  0.34 0.05 0  0.35 0.05 0  0.36 0.05 0  0.37 0.05 0  0.38 0.05 0  0.39 0.05 0  0.4 0.05 0  0.41 0.05 0  0.42 0.05 0  0.43 0.05 0  0.44 0.05 0  0.45 0.05 0  0.46 0.05 0  0.47 0.05 0  0.48 0.05 0  0.49 0.05 0  0.5 0.05 0  0.51 0.05 0  0.52 0.05 0  0.53 0.05 0  0.54 0.05 0  0.55 0.05 0  0.5600000000000001 0.05 0  0.57 0.05 0  0.58 0.05 0  0.59 0.05 0  0.6 0.05 0  0.61 0.05 0  0.62 0.05 0  0.63 0.05 0  0.64 0.05 0  0.65 0.05 0  0.66 0.05 0  0.67 0.05 0  0.68 0.05 0  0.6899999999999999 0.05 0  0.7 0.05 0  0.71 0.05 0  0.72 0.05 0  0.73 0.05 0  0.74 0.05 0  0.75 0.05 0  0.76 0.05 0  0.77 0.05 0  0.78 0.05 0  0.79 0.05 0  0.8 0.05 0  0.8100000000000001 0.05 0  0.82 0.05 0  0.83 0.05 0  0.84 0.05 0  0.85 0.05 0  0.86 0.05 0  0.87 0.05 0  0.88 0.05 0  0.89 0.05 0  0.9 0.05 0  0.91 0.05 0  0.92 0.05 0  0.93 0.05 0  0.9399999999999999 0.05 0  0.95 0.05 0  0.96 0.05 0  0.97 0.05 0  0.98 0.05 0  0.99 0.05 0  1 0.05 0  0 0.06 0  0.01 0.06 0  0.02 0.06 0  0.03 0.06 0  0.04 0.06 0  0.05 0.06 0  0.06 0.06 0  0.07000000000000001 0.06 0  0.08 0.06 0  0.09 0.06 0  0.1 0.06 0  0.11 0.06 0  0.12 0.06 0  0.13 0.06 0  0.14 0.06 0  0.15 0.06 0  0.16 0.06 0  0.17 0.06 0  0.18 0.06 0  0.19 0.06 0  0.2 0.06 0  0.21 0.06 0  0.22 0.06 0  0.23 0.06 0  0.24 0.06 0  0.25 0.06 0  0.26 0.06 0  0.27 0.06 0  0.28 0.06 0  0.29 0.06 0  0.3 0.06 0  0.31 0.06 0  0.32 0.06 0  0.33 0.06 0  0.34 0.06 0  0.35 0.06 0  0.36 0.06 0  0.37 0.06 0  0.38 0.06 0  0.39 0.06 0  0.4 0.06 0  0.41 0.06 0  0.42 0.06 0  0.43 0.06 0  0.44 0.06 0  0.45 0.06 0  0.46 0.06 0  0.47 0.06 0  0.48 0.06 0  0.49 0.06 0  0.5 0.06 0  0.51 0.06 0  0.52 0.06 0  0.53 0.06 0  0.54 0.06 0  0.55 0.06 0  0.5600000000000001 0.06 0  0.57 0.06 0  0.58 0.06 0  0.59 0.06 0  0.6 0.06 0  0.61 0.06 0  0.62 0.06 0  0.63 0.06 0  0.64 0.06 0  0.65 0.06 0  0.66 0.06 0  0.67 0.06 0  0.68 0.06 0  0.6899999999999999 0.06 0  0.7 0.06 0  0.71 0.06 0  0.72 0.06 0  0.73 0.06 0  0.74 0.06 0  0.75 0.06 0  0.76 0.06 0  0.77 0.06 0  0.78 0.06 0  0.79 0.06 0  0.8 0.06 0  0.8100000000000001 0.06 0  0.82 0.06 0  0.83 0.06 0  0.84 0.06 0  0.85 0.06 0  0.86 0.06 0  0.87 0.06 0  0.88 0.06 0  0.89 0.06 0  0.9 0.06 0  0.91 0.06 0  0.92 0.06 0  0.93 0.06 0  0.9399999999999999 0.06 0  0.95 0.06 0  0.96 0.06 0  0.97 0.06 0  0.98 0.06 0  0.99 0.06 0  1 0.06 0  0 0.07000000000000001 0  0.01 0.07000000000000001 0  0.02 0.07000000000000001 0  0.03 0.07000000000000001 0  0.04 0.07000000000000001 0  0.05 0.07000000000000001 0  0.06 0.07000000000000001 0  0.07000000000000001 0.07000000000000001 0  0.08 0.07000000000000001 0  0.09 0.07000000000000001 0  0.1 0.07000000000000001 0  0.11 0.07000000000000001 0  0.12 0.07000000000000001 0  0.13 0.07000000000000001 0  0.14 0.07000000000000001 0  0.15 0.07000000000000001 0  0.16 0.07000000000000001 0  0.17 0.0700
[...]
<PointData  Scalars="f_17"> 
<DataArray  type="Float64"  Name="f_17"  format="ascii">0.0000000000000000e+00  5.0000000000000000e+01  5.0000000000000000e+01  5.0000000000000000e+01  5.0000000000000000e+01  5.0000000000000000e+01  5.0000000000000000e+01  5.0000000000000000e+01  5.0000000000000000e+01  5.0000000000000000e+01  5.0000000000000000e+01  5.0000000000000000e+01  5.0000000000000000e+01  5.0000000000000000e+01  5.0000000000000000e+01  5.0000000000000000e+01  5.0000000000000000e+01  5.0000000000000000e+01  5.0000000000000000e+01  5.0000000000000000e+01  5.0000000000000000e+01  5.0000000000000000e+01  5.0000000000000000e+01  5.0000000000000000e+01  5.0000000000000000e+01  5.0000000000000000e+01  5.0000000000000000e+01  5.0000000000000000e+01  5.0000000000000000e+01  5.0000000000000000e+01  5.0000000000000000e+01  5.0000000000000000e+01  5.0000000000000000e+01  5.0000000000000000e+01  5.0000000000000000e+01  5.0000000000000000e+01  5.0000000000000000e+01  5.0000000000000000e+01  5.0000000000000000e+01  5.0000000000000000e+01  5.0000000000000000e+01  5.0000000000000000e+01  5.0000000000000000e+01  5.0000000000000000e+01  5.0000000000000000e+01  5.0000000000000000e+01  5.0000000000000000e+01  5.0000000000000000e+01  5.0000000000000000e+01  5.0000000000000000e+01  5.0000000000000000e+01  5.0000000000000000e+01  5.0000000000000000e+01  5.0000000000000000e+01  5.0000000000000000e+01  5.0000000000000000e+01  5.0000000000000000e+01  5.0000000000000000e+01  5.0000000000000000e+01  5.0000000000000000e+01  5.0000000000000000e+01  5.0000000000000000e+01  5.0000000000000000e+01  5.0000000000000000e+01  5.0000000000000000e+01  5.0000000000000000e+01  5.0000000000000000e+01  5.0000000000000000e+01  5.0000000000000000e+01  5.0000000000000000e+01  5.0000000000000000e+01  5.0000000000000000e+01  5.0000000000000000e+01  5.0000000000000000e+01  5.0000000000000000e+01  5.0000000000000000e+01  5.0000000000000000e+01  5.0000000000000000e+01  5.0000000000000000e+01  5.0000000000000000e+01  5.0000000000000000e+01  5.0000000000000000e+01  5.0000000000000000e+01  5.0000000000000000e+01  5.0000000000000000e+01  5.0000000000000000e+01  5.0000000000000000e+01  5.0000000000000000e+01  5.0000000000000000e+01  5.0000000000000000e+01  5.0000000000000000e+01  5.0000000000000000e+01  5.0000000000000000e+01  5.0000000000000000e+01  5.0000000000000000e+01  5.0000000000000000e+01  5.0000000000000000e+01  5.0000000000000000e+01  5.0000000000000000e+01  5.0000000000000000e+01  0.0000000000000000e+00  0.0000000000000000e+00  2.4972949881815666e+01  3.5199560156448833e+01  3.9679298524696456e+01  4.2094622949178735e+01  4.3582103441864604e+01  4.4581744873151983e+01  4.5295254758859130e+01  4.5827203729274267e+01  4.6236973530646843e+01  4.6560710141455083e+01  4.6821648485184895e+01  4.7035393791367021e+01  4.7212811452815259e+01  4.7361697930184505e+01  4.7487792255415357e+01  4.7595412593857858e+01  4.7687870387702141e+01  4.7767747663891832e+01  4.7837087450794769e+01  4.7897527464700211e+01  4.7950395837059880e+01  4.7996780880786950e+01  4.8037582749911770e+01  4.8073552245427877e+01  4.8105320348926725e+01  4.8133420969333855e+01  4.8158308655128103e+01  4.8180372525850487e+01  4.8199947332106376e+01  4.8217322311577341e+01  4.8232748336734659e+01  4.8246443726255535e+01  4.8258599002051263e+01  4.8269380807485319e+01  4.8278935153018914e+01  4.8287390118468977e+01  4.8294858112986972e+01  4.8301437772408107e+01  4.8307215557087702e+01  4.8312267100500080e+01  4.8316658348827787e+01  4.8320446523844964e+01  4.8323680935101422e+01  4.8326403662368556e+01  4.8328650125232528e+01  4.8330449553390025e+01  4.8331825368455156e+01  4.8332795485787585e+01  4.8333372542892910e+01  4.8333564059249483e+01  4.8333372530902054e+01  4.8332795461778716e+01  4.8331825332374542e+01  4.8330449505157894e+01  4.8328650064744053e+01  4.8326403589495023e+01  4.8323680849692089e+01  4.8320446425729024e+01  4.8316658237816270e+01  4.8312266976388614e+01  4.8307215419659101e+01  4.8301437621435589e+01  4.8294857948236839e+01  4.8287389939704383e+01  4.8278934960003149e+01  4.8269380599985723e+01  4.8258598779842622e+01  4.8246443489123912e+01  4.8232748084481258e+01  4.8217322044022481e+01  4.8199947049092764e+01  4.8180372227247062e+01  4.8158308340833557e+01  4.8133420639279855e+01  4.8105320003081033e+01  4.8073551883796938e+01  4.8037582372543405e+01  4.7996780487772440e+01  4.7950395428535522e+01  4.7897527040848566e+01  4.7837087011845590e+01  4.7767747210122074e+01  4.7687869919435670e+01  4.7595412111464285e+01  4.7487791759308230e+01  4.7361697420818842e+01  4.7212810930683631e+01  4.7035393256995100e+01  4.6821647939125157e+01  4.6560709584278897e+01  4.6236972962933287e+01  4.5827203151595008e+01  4.5295254171754614e+01  4.4581744277090294e+01  4.3582102837158125e+01  4.2094622335778972e+01  3.9679297901564617e+01  3.5199559519100958e+01  2.4972949210127879e+01  0.0000000000000000e+00  0.0000000000000000e+00  1.4692331552219050e+01  2.4891984190963765e+01  3.1123052793515271e+01  3.5026708660747509e+01  3.7619181086237774e+01  3.9435929558448947e+01  4.0765873202384512e+01  4.1773723442643778e+01  4.2558770140899561e+01  4.3183910075516543e+01  4.3690718357598350e+01  4.4107690636946607e+01  4.4454971805906084e+01  4.4747187063079714e+01  4.4995201605335076e+01  4.5207251000095241e+01  4.5389688660586643e+01  4.5547492962041517e+01  4.5684619220088550e+01  4.5804249016923372e+01  4.5908970072272858e+01  4.6000908166341411e+01  4.6081825354389899e+01  4.6153194088584449e+01  4.6216253857985578e+01  4.6272054967004607e+01  4.6321492730474041e+01  4.6365334443641913e+01  4.6404240845481084e+01  4.6438783342295757e+01  4.6469457936048748e+01  4.6496696568567295e+01  4.6520876422194263e+01  4.6542327591386282e+01  4.6561339445678392e+01  4.6578165933570652e+01  4.6593030023046872e+01  4.6606127433181719e+01  4.6617629779434075e+01  4.6627687230427718e+01  4.6636430754583486e+01  4.6643974019606624e+01  4.6650414995608195e+01  4.6655837302831863e+01  4.6660311337014683e+01  4.6663895198923569e+01  4.6666635449241589e+01  4.6668567705486772e+01  4.6669717093812245e+01  4.6670098565211454e+01  4.6669717082684400e+01  4.6668567683205616e+01  4.6666635415756744e+01  4.6663895154160294e+01  4.6660311280874723e+01  4.6655837235194525e+01  4.6650414916332259e+01  4.6643973928531963e+01  4.6636430651533082e+01  4.6627687115209866e+01  4.6617629651845206e+01  4.6606127293009017e+01  4.6593029870071106e+01  4.6578165767569530e+01  4.6561339266429478e+01  4.6542327398670544e+01  4.6520876215799397e+01  4.6496696348291024e+01  4.6469457701702304e+01  4.6438783093707364e+01  4.6404240582499014e+01  4.6365334166137565e+01  4.6321492438345096e+01  4.6272054660177737e+01  4.6216253536418677e+01  4.6153193752268898e+01  4.6081825003352201e+01  4.6000907800644711e+01  4.5908969692017571e+01  4.5804248622247449e+01  4.5684618811167397e+01  4.5547492539086832e+01  4.5389688223844622e+01  4.5207250549844012e+01  4.4995201141881275e+01  4.4747186586753699e+01  4.4454971317055652e+01  4.4107690135929666e+01  4.3690717844772657e+01  4.3183909551227110e+01  4.2558769605461229e+01  4.1773722896317160e+01  4.0765872645340373e+01  3.9435928990710501e+01  3.7619180507579571e+01  3.5026708070504966e+01  3.1123052190234471e+01  2.4891983572101694e+01  1.4692330918032125e+01  0.0000000000000000e+00  0.0000000000000000e+00  1.0158770443106283e+01  1.8553362529870633e+01  2.4757658141307704e+01  2.9194239269106099e+01  3.2395155840891952e+01  3.4758944105352967e+01  3.6549706381871971e+01  3.7938788631886545e+01  3.9038723712254182e+01  3.9925153386031667e+01  4.0650251232357803e+01  4.1250921253150210e+01  4.1753884167962575e+01  4.2178902936847372e+01  4.2540877090582946e+01  4.2851234506250940e+01  4.3118876859028070e+01  4.3350835148684084e+01  4.3552732860704275e+01  4.3729118932859876e+01  4.3883710963367982e+01  4.4019575471415095e+01  4.4139263309440835e+01  4.4244912652261711e+01  4.4338328226747855e+01  4.4421042911220965e+01  4.4494366099464365e+01  4.4559422020408654e+01  4.4617180357659215e+01  4.4668480909707213e+01  4.4714053596784765e+01  4.4754534803380274e+01  4.4790480812034048e+01  4.4822378910479159e+01  4.4850656623939322e+01  4.4875689425788593e+01  4.4897807204505497e+01  4.4917299706941854e+01  4.4934421133027207e+01  4.4949394021967777e+01  4.4962412542413666e+01  4.4973645277213080e+01  4.4983237575925422e+01  4.4991313534228567e+01  4.4997977647966742e+01  4.5003316180255148e+01  4.5007398272327990e+01  4.5010276822325551e+01  4.5011989150676634e+01  4.5012557465909595e+01  4.5011989140422237e+01  4.5010276801792642e+01  4.5007398241468607e+01  4.5003316138997960e+01  4.4997977596218206e+01  4.4991313471873944e+01  4.4983237502830093e+01  4.4973645193224456e+01  4.4962412447363015e+01  4.4949393915672438e+01  4.4934421015293019e+01  4.4917299577565480e+01  4.4897807063277540e+01  4.4875689272496182e+01  4.4850656458369393e+01  4.4822378732421143e+01  4.4790480621283322e+01  4.4754534599741049e+01  4.4714053380073210e+01  4.4668480679754488e+01  4.4617180114314316e+01  4.4559421763541103e+01  4.4494365828966664e+01  4.4421042627010820e+01  4.4338327928770148e+01  4.4244912340490053e+01  4.4139262983878488e+01  4.4019575132095596e+01  4.3883710610355465e+01  4.3729118566248118e+01  4.3552732480615731e+01  4.3350834755267769e+01  4.3118876452456362e+01  4.2851234086715849e+01  4.2540876658290976e+01  4.2178902492012853e+01  4.1753883710799656e+01  4.1250920783862661e+01  4.0650250751126144e+01  3.9925152892996934e+01  3.9038723207496766e+01  3.7938788115398097e+01  3.6549705853516876e+01  3.4758943564814352e+01  3.2395155287596531e+01  2.9194238702134470e+01  2.4757657559364436e+01  1.8553361931644851e+01  1.0158769828347584e+01  0.0000000000000000e+00  0.0000000000000000e+00  7.6899000205286105e+00  1.4542706605464906e+01  2.0160806278339376e+01  2.4570889006778195e+01  2.7986710657956674e+01  3.0641532611563679e+01  3.2727680341291524e+01  3.4389258024177764e+01  3.5730844718350262e+01  3.6827956100841789e+01  3.7735505440301118e+01  3.8493917356450275e+01  3.9133378189883850e+01  3.9676762065231614e+01  4.0141651581696557e+01  4.0541746200049964e+01  4.0887855735468541e+01  4.1188610440272399e+01  4.1450975341731962e+01  4.1680627702823543e+01  4.1882237540873035e+01  4.2059678612084326e+01  4.2216188902990218e+01  4.2354494019834348e+01  4.2476903006928382e+01  4.2585383456740345e+01  4.2681620908321705e+01  4.2767066210637758e+01  4.2842973583324486e+01  4.2910431425123043e+01  4.2970387422169850e+01  4.3023669141215251e+01  4.3071001019784610e+01  4.3113018460413535e+01  4.3150279581079786e+01  4.3183275055744488e+01  4.3212436388082935e+01  4.3238142891175052e+01  4.3260727591119284e+01  4.3280482229512678e+01  4.3297661505739967e+01  4.3312486672958649e+01  4.3325148579982844e+01  4.3335810233757144e+01  4.3344608942854087e+01  4.3351658090711183e+01  4.3357048577582084e+01  4.3360849961977131e+01  4.3363111325350268e+01  4.3363861877662124e+01  4.3363111315974962e+01  4.3360849943203121e+01  4.3357048549362879e+01  4.3351658052977761e+01  4.3344608895515549e+01  4.3335810176702218e+01  4.3325148513080997e+01  4.3312486596061703e+01  4.3297661418683965e+01  4.3280482132120149e+01  4.3260727483201165e+01  4.3238142772533308e+01  4.3212436258513215e+01  4.3183274915038780e+01  4.3150279429029105e+01  4.3113018296811049e+01  4.3071000844428141e+01  4.3023668953910516e+01  4.2970387222732995e+01  4.2910431213383568e+01  4.2842973359127555e+01  4.2767065973846755e+01  4.2681620658820137e+01  4.2585383194433838e+01  4.2476902731746087e+01  4.2354493731729860e+01  4.2216188601942257e+01  4.2059678298096564e+01  4.1882237213973674e+01  4.1680627363063749e+01  4.1450974989183997e+01  4.1188610075026645e+01  4.0887855357629185e+01  4.0541745809730259e+01  4.0141651179012158e+01  3.9676761650292526e+01  3.9133377762784932e+01  3.8493916917258943e+01  3.7735504989042838e+01  3.6827955637481665e+01  3.5730844242770246e+01  3.4389257536148264e+01  3.2727679840435364e+01  3.0641532097312798e+01  2.7986710129504385e+01  2.4570888463044930e+01  2.0160805717999494e+01  1.4542706027086401e+01  7.6898994226469863e+00  0.0000000000000000e+00  0.0000000000000000e+00  6.1492402812132863e+00  1.1843966991647678e+01  1.6800716691441032e+01  2.0943260503129405e+01  2.4332945464103911e+01  2.7086602580002285e+01  2.9326162130238590e+01  3.1157824195809170e+01  3.2667301120885782e+01  3.3921522725197690e+01  3.4972124955727502e+01  3.5858895289110976e+01  3.6612628669956678e+01  3.7257337162246003e+01  3.7811909719764010e+01  3.8291344851136593e+01  3.8707664317007733e+01  3.9070592548889550e+01  3.9388064892171208e+01  3.9666610660469509e+01  3.9911644227949125e+01  4.0127688135059600e+01  4.0318545556732658e+01  4.0487434752804276e+01  4.0637094741013506e+01  4.0769869008288467e+01  4.0887772326422009e+01  4.0992544467234069e+01  4.1085693682288387e+01  4.1168532126581056e+01  4.1242204896297920e+01  4.1307713969541531e+01  4.1365938051510369e+01  4.1417649107330121e+01  4.1463526198786361e+01  4.1504167112644595e+01  4.1540098168578631e+01  4.1571782516961648e+01  4.1599627175710928e+01  4.1623989007123349e+01  4.1645179797269087e+01  4.1663470569802904e+01  4.1679095241311998e+01  4.1692253705241320e+01  4.1703114415015996e+01  4.1711816523422399e+01  4.1718471623998525e+01  4.1723165130622235e+01  4.1725957323274798e+01  4.1726884080768038e+01  4.1725957314779826e+01  4.1723165113609099e+01  4.1718471598421317e+01  4.1711816489212787e+01  4.1703114372084187e+01  4.1692253653477252e+01  4.1679095180586330e+01  4.1663470499968923e+01  4.1645179718164236e+01  4.1623988918571378e+01  4.1599627077523991e+01  4.1571782408942674e+01  4.1540098050523802e+01  4.1504166984345957e+01  4.1463526060034440e+01  4.1417648957916697e+01  4.1365937891231077e+01  4.1307713798198719e+01  4.1242204713703060e+01  4.1168531932557443e+01  4.1085693476673299e+01  4.0992544249880858e+01  4.0887772097201946e+01  4.0769868767092206e+01  4.0637094487752144e+01  4.0487434487410134e+01  4.0318545279159082e+01  4.0127687845280775e+01  3.9911643925958657e+01  3.9666610346278588e+01  3.9388064565805813e+01  3.9070592210386771e+01  3.8707663966410806e+01  3.8291344488488910e+01  3.7811909345101682e+01  3.7257336775588861e+01  3.6612628271297169e+01  3.5858894878401017e+01  3.4972124532862757e+01  3.3921522289998329e+01  3.2667300673073761e+01  3.1157823734980965e+01  2.9326161655833413e+01  2.7086602091267125e+01  2.4332944960059454e+01  2.0943259982546383e+01  1.6800716152836728e+01  1.1843966433283340e+01  6.1492397009910871e+00  0.0000000000000000e+00  0.0000000000000000e+00  5.0968744757934008e+00  9.9218602908128517e+00  1.4279116888934043e+01  1.8078443347524445e+01  2.1317466833277333e+01  2.4045432400585277e+01  2.6332112125301233e+01  2.8248982030884619e+01  2.9860471562034839e+01  3.1221173996672643e+01  3.2375931035408499e+01  3.3361035235019912e+01  3.4205699007602270e+01  3.4933433452958305e+01  3.5563218921042953e+01  3.6110452869494729e+01  3.6587699577090859e+01  3.7005276604282670e+01  3.7371711695136412e+01  3.7694098782476694e+01  3.7978376110327218e+01  3.8229544421936609e+01  3.8451839004513843e+01  3.8648866114834227e+01  3.8823711799667038e+01  3.8979029218351542e+01  3.9117109134142027e+01  3.9239937153700410e+01  3.9349240472643814e+01  3.9446526262668634e+01  3.9533113362424430e+01  3.9610158572702431e+01  3.9678678578898854e+01  3.9739568309506275e+01  3.9793616373217780e+01  3.9841518087637112e+01  3.9883886510975991e+01  3.9921261808015863e+01  3.9954119218120375e+01  3.9982875842485221e+01  4.0007896427261201e+01  4.0029498286497677e+01  4.0047955482344165e+01  4.0063502358297384e+01  4.0076336503473961e+01  4.0086621211105104e+01  4.0094487482055278e+01  4.0100035613636578e+01  4.0103336404911680e+01  4.0104432001696097e+01  4.0103336397294356e+01  4.0100035598378632e+01  4.0094487459110375e+01  4.0086621180404372e+01  4.0076336464926868e+01  4.0063502311792810e+01  4.0047955427751461e+01  4.0029498223668512e+01  4.0007896356031139e+01  3.9982875762675754e+01  3.9954119129540807e+01  3.9921261710465942e+01  3.9883886404248130e+01  3.9841517971518897e+01  3.9793616247494562e+01  3.9739568173963953e+01  3.9678678433326255e+01  3.9610158416893967e+01  3.9533113196182484e+01  3.9446526085806269e+01  3.9349240284986564e+01  3.9239936955088126e+01  3.9117108924430788e+01  3.8979028997414702e+01  3.8823711567396074e+01  3.8648865871139051e+01  3.8451838749322633e+01  3.8229544155194823e+01  3.7978375831996146e+01  3.7694098492530870e+01  3.7371711393560489e+01  3.7005276291066956e+01  3.6587699252225946e+01  3.6110452532964679e+01  3.5563218572817206e+01  3.4933433092981915e+01  3.4205698635784124e+01  3.3361034851218982e+01  3.2375930639417561e+01  3.1221173588199264e+01  2.9860471140679177e+01  2.8248981596114131e+01  2.6332111676422294e+01  2.4045431936713140e+01  2.1317466353306582e+01  1.8078442850102189e+01  1.4279116372433297e+01  9.9218597532885191e+00  5.0968739148857081e+00  0.0000000000000000e+00  0.0000000000000000e+00  4.3311808783679977e+00  8.4876388097726725e+00  1.2332161329621702e+01  1.5784453749205975e+01  1.8818770488510662e+01  2.1448759593689683e+01  2.3710271859387934e+01  2.5648055821981238e+01  2.7307532904192197e+01  2.8730596400385569e+01  2.9953960436867575e+01  3.1008900351157894e+01  3.1921650347807692e+01  3.2714048623881673e+01  3.3404223311521285e+01  3.4007226684117839e+01  3.4535584316734514e+01  3.4999754368399493e+01  3.5408504429463349e+01  3.5769217581682476e+01  3.6088139761632974e+01  3.6370579389866428e+01  3.6621068593056151e+01  3.6843493689159075e+01  3.7041201122807863e+01  3.7217083788419302e+01  3.7373651658934719e+01  3.7513089821615623e+01  3.7637306375349525e+01  3.7747972134186263e+01  3.7846553681226858e+01  3.7934341002285919e+01  3.8012470681271644e+01  3.8081945444217737e+01  3.8143650684815192e+01  3.8198368482143806e+01  3.8246789524126896e+01  3.8289523272616272e+01  3.8327106643770350e+01  3.8360011427246469e+01  3.8388650627153382e+01  3.8413383874707797e+01  3.8434522035552696e+01  3.8452331112489603e+01  3.8467035525979206e+01  3.8478820839392647e+01  3.8487835983025626e+01  3.8494195019806149e+01  3.8497978486021779e+01  3.8499234331907090e+01  3.8497978479276270e+01  3.8494195006291228e+01  3.8487835962693715e+01  3.8478820812173055e+01  3.8467035491778894e+01  3.8452331071194301e+01  3.8434521987027964e+01  3.8413383818800916e+01  3.8388650563694846e+01  3.8360011356051935e+01  3.8327106564642740e+01  3.8289523185348081e+01  3.8246789428502645e+01  3.8198368377942387e+01  3.8143650571812522e+01  3.8081945322189355e+01  3.8012470549995214e+01  3.7934340861543781e+01  3.7846553530808393e+01  3.7747971973890323e+01  3.7637306204986444e+01  3.7513089641008897e+01  3.7373651467922585e+01  3.7217083586855928e+01  3.7041200910563838e+01  3.6843493466121608e+01  3.6621068359128657e+01  3.6370579144967365e+01  3.6088139505693974e+01  3.5769217314645630e+01  3.5408504151277569e+01  3.4999754079015695e+01  3.4535584016099847e+01  3.4007226372168475e+01  3.3404222988173800e+01  3.2714048289022955e+01  3.1921650001282888e+01  3.1008899992756255e+01  2.9953960066306610e+01  2.8730596017292250e+01  2.7307532508081987e+01  2.5648055412234537e+01  2.3710271435224527e+01  2.1448759154141484e+01  1.8818770032393918e+01  1.5784453275092295e+01  1.2332160835804730e+01  8.4876382942225312e+00  4.3311803386641365e+00  0.0000000000000000e+00  0.0000000000000000e+00  3.7476718954416248e+00  7.3767570541130834e+00  1.0788752589698401e+01  1.3917518249075638e+01  1.6731068680988901e+01  1.9225601380275595e+01  2.1416466118492504e+01  2.3329680451396253e+01  2.4995594772184109e+01  2.6444858363553458e+01  2.7706197736458556e+01  2.8805407790249081e+01  2.9765066652271063e+01  3.0604639012140186e+01  3.1340761185293516e+01  3.1987590121982855e+01  3.2557154322933663e+01  3.3059677257229517e+01  3.3503861936269658e+01  3.3897134705330977e+01  3.4245850815263282e