<?xml version="1.0"?>
<VTKFile type="UnstructuredGrid"  version="0.1"  >
<UnstructuredGrid>
<Piece  NumberOfPoints="10201" NumberOfCells="20000">
<Points>
<DataArray  type="Float64"  NumberOfComponents="3"  format="ascii">0 0 0  0.01 0 0  0.02 0 0  0.03 0 0  0.04 0 0  0.05 0 0  0.06 0 0  0.07000000000000001 0 0  0.08 0 0  0.09 0 0  0.1 0 0  0.11 0 0  0.12 0 0  0.13 0 0  0.14 0 0  0.15 0 0  0.16 0 0  0.17 0 0  0.18 0 0  0.19 0 0  0.2 0 0  0.21 0 0  0.22 0 0  0.23 0 0  0.24 0 0  0.25 0 0  0.26 0 0  0.27 0 0  0.28 0 0  0.29 0 0  0.3 0 0  0.31 0 0  0.32 0 0  0.33 0 0  0.34 0 0  0.35 0 0  0.36 0 0  0.37 0 0  0.38 0 0  0.39 0 0  0.4 0 0  0.41 0 0  0.42 0 0  0.43 0 0  0.44 0 0  0.45 0 0  0.46 0 0  0.47 0 0  0.48 0 0  0.49 0 0  0.5 0 0  0.51 0 0  0.52 0 0  0.53 0 0  0.54 0 0  0.55 0 0  0.5600000000000001 0 0  0.57 0 0  0.58 0 0  0.59 0 0  0.6 0 0  0.61 0 0  0.62 0 0  0.63 0 0  0.64 0 0  0.65 0 0  0.66 0 0  0.67 0 0  0.68 0 0  0.6899999999999999 0 0  0.7 0 0  0.71 0 0  0.72 0 0  0.73 0 0  0.74 0 0  0.75 0 0  0.76 0 0  0.77 0 0  0.78 0 0  0.79 0 0  0.8 0 0  0.8100000000000001 0 0  0.82 0 0  0.83 0 0  0.84 0 0  0.85 0 0  0.86 0 0  0.87 0 0  0.88 0 0  0.89 0 0  0.9 0 0  0.91 0 0  0.92 0 0  0.93 0 0  0.9399999999999999 0 0  0.95 0 0  0.96 0 0  0.97 0 0  0.98 0 0  0.99 0 0  1 0 0  0 0.01 0  0.01 0.01 0  0.02 0.01 0  0.03 0.01 0  0.04 0.01 0  0.05 0.01 0  0.06 0.01 0  0.07000000000000001 0.01 0  0.08 0.01 0  0.09 0.01 0  0.1 0.01 0  0.11 0.01 0  0.12 0.01 0  0.13 0.01 0  0.14 0.01 0  0.15 0.01 0  0.16 0.01 0  0.17 0.01 0  0.18 0.01 0  0.19 0.01 0  0.2 0.01 0  0.21 0.01 0  0.22 0.01 0  0.23 0.01 0  0.24 0.01 0  0.25 0.01 0  0.26 0.01 0  0.27 0.01 0  0.28 0.01 0  0.29 0.01 0  0.3 0.01 0  0.31 0.01 0  0.32 0.01 0  0.33 0.01 0  0.34 0.01 0  0.35 0.01 0  0.36 0.01 0  0.37 0.01 0  0.38 0.01 0  0.39 0.01 0  0.4 0.01 0  0.41 0.01 0  0.42 0.01 0  0.43 0.01 0  0.44 0.01 0  0.45 0.01 0  0.46 0.01 0  0.47 0.01 0  0.48 0.01 0  0.49 0.01 0  0.5 0.01 0  0.51 0.01 0  0.52 0.01 0  0.53 0.01 0  0.54 0.01 0  0.55 0.01 0  0.5600000000000001 0.01 0  0.57 0.01 0  0.58 0.01 0  0.59 0.01 0  0.6 0.01 0  0.61 0.01 0  0.62 0.01 0  0.63 0.01 0  0.64 0.01 0  0.65 0.01 0  0.66 0.01 0  0.67 0.01 0  0.68 0.01 0  0.6899999999999999 0.01 0  0.7 0.01 0  0.71 0.01 0  0.72 0.01 0  0.73 0.01 0  0.74 0.01 0  0.75 0.01 0  0.76 0.01 0  0.77 0.01 0  0.78 0.01 0  0.79 0.01 0  0.8 0.01 0  0.8100000000000001 0.01 0  0.82 0.01 0  0.83 0.01 0  0.84 0.01 0  0.85 0.01 0  0.86 0.01 0  0.87 0.01 0  0.88 0.01 0  0.89 0.01 0  0.9 0.01 0  0.91 0.01 0  0.92 0.01 0  0.93 0.01 0  0.9399999999999999 0.01 0  0.95 0.01 0  0.96 0.01 0  0.97 0.01 0  0.98 0.01 0  0.99 0.01 0  1 0.01 0  0 0.02 0  0.01 0.02 0  0.02 0.02 0  0.03 0.02 0  0.04 0.02 0  0.05 0.02 0  0.06 0.02 0  0.07000000000000001 0.02 0  0.08 0.02 0  0.09 0.02 0  0.1 0.02 0  0.11 0.02 0  0.12 0.02 0  0.13 0.02 0  0.14 0.02 0  0.15 0.02 0  0.16 0.02 0  0.17 0.02 0  0.18 0.02 0  0.19 0.02 0  0.2 0.02 0  0.21 0.02 0  0.22 0.02 0  0.23 0.02 0  0.24 0.02 0  0.25 0.02 0  0.26 0.02 0  0.27 0.02 0  0.28 0.02 0  0.29 0.02 0  0.3 0.02 0  0.31 0.02 0  0.32 0.02 0  0.33 0.02 0  0.34 0.02 0  0.35 0.02 0  0.36 0.02 0  0.37 0.02 0  0.38 0.02 0  0.39 0.02 0  0.4 0.02 0  0.41 0.02 0  0.42 0.02 0  0.43 0.02 0  0.44 0.02 0  0.45 0.02 0  0.46 0.02 0  0.47 0.02 0  0.48 0.02 0  0.49 0.02 0  0.5 0.02 0  0.51 0.02 0  0.52 0.02 0  0.53 0.02 0  0.54 0.02 0  0.55 0.02 0  0.5600000000000001 0.02 0  0.57 0.02 0  0.58 0.02 0  0.59 0.02 0  0.6 0.02 0  0.61 0.02 0  0.62 0.02 0  0.63 0.02 0  0.64 0.02 0  0.65 0.02 0  0.66 0.02 0  0.67 0.02 0  0.68 0.02 0  0.6899999999999999 0.02 0  0.7 0.02 0  0.71 0.02 0  0.72 0.02 0  0.73 0.02 0  0.74 0.02 0  0.75 0.02 0  0.76 0.02 0  0.77 0.02 0  0.78 0.02 0  0.79 0.02 0  0.8 0.02 0  0.8100000000000001 0.02 0  0.82 0.02 0  0.83 0.02 0  0.84 0.02 0  0.85 0.02 0  0.86 0.02 0  0.87 0.02 0  0.88 0.02 0  0.89 0.02 0  0.9 0.02 0  0.91 0.02 0  0.92 0.02 0  0.93 0.02 0  0.9399999999999999 0.02 0  0.95 0.02 0  0.96 0.02 0  0.97 0.02 0  0.98 0.02 0  0.99 0.02 0  1 0.02 0  0 0.03 0  0.01 0.03 0  0.02 0.03 0  0.03 0.03 0  0.04 0.03 0  0.05 0.03 0  0.06 0.03 0  0.07000000000000001 0.03 0  0.08 0.03 0  0.09 0.03 0  0.1 0.03 0  0.11 0.03 0  0.12 0.03 0  0.13 0.03 0  0.14 0.03 0  0.15 0.03 0  0.16 0.03 0  0.17 0.03 0  0.18 0.03 0  0.19 0.03 0  0.2 0.03 0  0.21 0.03 0  0.22 0.03 0  0.23 0.03 0  0.24 0.03 0  0.25 0.03 0  0.26 0.03 0  0.27 0.03 0  0.28 0.03 0  0.29 0.03 0  0.3 0.03 0  0.31 0.03 0  0.32 0.03 0  0.33 0.03 0  0.34 0.03 0  0.35 0.03 0  0.36 0.03 0  0.37 0.03 0  0.38 0.03 0  0.39 0.03 0  0.4 0.03 0  0.41 0.03 0  0.42 0.03 0  0.43 0.03 0  0.44 0.03 0  0.45 0.03 0  0.46 0.03 0  0.47 0.03 0  0.48 0.03 0  0.49 0.03 0  0.5 0.03 0  0.51 0.03 0  0.52 0.03 0  0.53 0.03 0  0.54 0.03 0  0.55 0.03 0  0.5600000000000001 0.03 0  0.57 0.03 0  0.58 0.03 0  0.59 0.03 0  0.6 0.03 0  0.61 0.03 0  0.62 0.03 0  0.63 0.03 0  0.64 0.03 0  0.65 0.03 0  0.66 0.03 0  0.67 0.03 0  0.68 0.03 0  0.6899999999999999 0.03 0  0.7 0.03 0  0.71 0.03 0  0.72 0.03 0  0.73 0.03 0  0.74 0.03 0  0.75 0.03 0  0.76 0.03 0  0.77 0.03 0  0.78 0.03 0  0.79 0.03 0  0.8 0.03 0  0.8100000000000001 0.03 0  0.82 0.03 0  0.83 0.03 0  0.84 0.03 0  0.85 0.03 0  0.86 0.03 0  0.87 0.03 0  0.88 0.03 0  0.89 0.03 0  0.9 0.03 0  0.91 0.03 0  0.92 0.03 0  0.93 0.03 0  0.9399999999999999 0.03 0  0.95 0.03 0  0.96 0.03 0  0.97 0.03 0  0.98 0.03 0  0.99 0.03 0  1 0.03 0  0 0.04 0  0.01 0.04 0  0.02 0.04 0  0.03 0.04 0  0.04 0.04 0  0.05 0.04 0  0.06 0.04 0  0.07000000000000001 0.04 0  0.08 0.04 0  0.09 0.04 0  0.1 0.04 0  0.11 0.04 0  0.12 0.04 0  0.13 0.04 0  0.14 0.04 0  0.15 0.04 0  0.16 0.04 0  0.17 0.04 0  0.18 0.04 0  0.19 0.04 0  0.2 0.04 0  0.21 0.04 0  0.22 0.04 0  0.23 0.04 0  0.24 0.04 0  0.25 0.04 0  0.26 0.04 0  0.27 0.04 0  0.28 0.04 0  0.29 0.04 0  0.3 0.04 0  0.31 0.04 0  0.32 0.04 0  0.33 0.04 0  0.34 0.04 0  0.35 0.04 0  0.36 0.04 0  0.37 0.04 0  0.38 0.04 0  0.39 0.04 0  0.4 0.04 0  0.41 0.04 0  0.42 0.04 0  0.43 0.04 0  0.44 0.04 0  0.45 0.04 0  0.46 0.04 0  0.47 0.04 0  0.48 0.04 0  0.49 0.04 0  0.5 0.04 0  0.51 0.04 0  0.52 0.04 0  0.53 0.04 0  0.54 0.04 0  0.55 0.04 0  0.5600000000000001 0.04 0  0.57 0.04 0  0.58 0.04 0  0.59 0.04 0  0.6 0.04 0  0.61 0.04 0  0.62 0.04 0  0.63 0.04 0  0.64 0.04 0  0.65 0.04 0  0.66 0.04 0  0.67 0.04 0  0.68 0.04 0  0.6899999999999999 0.04 0  0.7 0.04 0  0.71 0.04 0  0.72 0.04 0  0.73 0.04 0  0.74 0.04 0  0.75 0.04 0  0.76 0.04 0  0.77 0.04 0  0.78 0.04 0  0.79 0.04 0  0.8 0.04 0  0.8100000000000001 0.04 0  0.82 0.04 0  0.83 0.04 0  0.84 0.04 0  0.85 0.04 0  0.86 0.04 0  0.87 0.04 0  0.88 0.04 0  0.89 0.04 0  0.9 0.04 0  0.91 0.04 0  0.92 0.04 0  0.93 0.04 0  0.9399999999999999 0.04 0  0.95 0.04 0  0.96 0.04 0  0.97 0.04 0  0.98 0.04 0  0.99 0.04 0  1 0.04 0  0 0.05 0  0.01 0.05 0  0.02 0.05 0  0.03 0.05 0  0.04 0.05 0  0.05 0.05 0  0.06 0.05 0  0.07000000000000001 0.05 0  0.08 0.05 0  0.09 0.05 0  0.1 0.05 0  0.11 0.05 0  0.12 0.05 0  0.13 0.05 0  0.14 0.05 0  0.15 0.05 0  0.16 0.05 0  0.17 0.05 0  0.18 0.05 0  0.19 0.05 0  0.2 0.05 0  0.21 0.05 0  0.22 0.05 0  0.23 0.05 0  0.24 0.05 0  0.25 0.05 0  0.26 0.05 0  0.27 0.05 0  0.28 0.05 0  0.29 0.05 0  0.3 0.05 0  0.31 0.05 0  0.32 0.05 0  0.33 0.05 0  0.34 0.05 0  0.35 0.05 0  0.36 0.05 0  0.37 0.05 0  0.38 0.05 0  0.39 0.05 0  0.4 0.05 0  0.41 0.05 0  0.42 0.05 0  0.43 0.05 0  0.44 0.05 0  0.45 0.05 0  0.46 0.05 0  0.47 0.05 0  0.48 0.05 0  0.49 0.05 0  0.5 0.05 0  0.51 0.05 0  0.52 0.05 0  0.53 0.05 0  0.54 0.05 0  0.55 0.05 0  0.5600000000000001 0.05 0  0.57 0.05 0  0.58 0.05 0  0.59 0.05 0  0.6 0.05 0  0.61 0.05 0  0.62 0.05 0  0.63 0.05 0  0.64 0.05 0  0.65 0.05 0  0.66 0.05 0  0.67 0.05 0  0.68 0.05 0  0.6899999999999999 0.05 0  0.7 0.05 0  0.71 0.05 0  0.72 0.05 0  0.73 0.05 0  0.74 0.05 0  0.75 0.05 0  0.76 0.05 0  0.77 0.05 0  0.78 0.05 0  0.79 0.05 0  0.8 0.05 0  0.8100000000000001 0.05 0  0.82 0.05 0  0.83 0.05 0  0.84 0.05 0  0.85 0.05 0  0.86 0.05 0  0.87 0.05 0  0.88 0.05 0  0.89 0.05 0  0.9 0.05 0  0.91 0.05 0  0.92 0.05 0  0.93 0.05 0  0.9399999999999999 0.05 0  0.95 0.05 0  0.96 0.05 0  0.97 0.05 0  0.98 0.05 0  0.99 0.05 0  1 0.05 0  0 0.06 0  0.01 0.06 0  0.02 0.06 0  0.03 0.06 0  0.04 0.06 0  0.05 0.06 0  0.06 0.06 0  0.07000000000000001 0.06 0  0.08 0.06 0  0.09 0.06 0  0.1 0.06 0  0.11 0.06 0  0.12 0.06 0  0.13 0.06 0  0.14 0.06 0  0.15 0.06 0  0.16 0.06 0  0.17 0.06 0  0.18 0.06 0  0.19 0.06 0  0.2 0.06 0  0.21 0.06 0  0.22 0.06 0  0.23 0.06 0  0.24 0.06 0  0.25 0.06 0  0.26 0.06 0  0.27 0.06 0  0.28 0.06 0  0.29 0.06 0  0.3 0.06 0  0.31 0.06 0  0.32 0.06 0  0.33 0.06 0  0.34 0.06 0  0.35 0.06 0  0.36 0.06 0  0.37 0.06 0  0.38 0.06 0  0.39 0.06 0  0.4 0.06 0  0.41 0.06 0  0.42 0.06 0  0.43 0.06 0  0.44 0.06 0  0.45 0.06 0  0.46 0.06 0  0.47 0.06 0  0.48 0.06 0  0.49 0.06 0  0.5 0.06 0  0.51 0.06 0  0.52 0.06 0  0.53 0.06 0  0.54 0.06 0  0.55 0.06 0  0.5600000000000001 0.06 0  0.57 0.06 0  0.58 0.06 0  0.59 0.06 0  0.6 0.06 0  0.61 0.06 0  0.62 0.06 0  0.63 0.06 0  0.64 0.06 0  0.65 0.06 0  0.66 0.06 0  0.67 0.06 0  0.68 0.06 0  0.6899999999999999 0.06 0  0.7 0.06 0  0.71 0.06 0  0.72 0.06 0  0.73 0.06 0  0.74 0.06 0  0.75 0.06 0  0.76 0.06 0  0.77 0.06 0  0.78 0.06 0  0.79 0.06 0  0.8 0.06 0  0.8100000000000001 0.06 0  0.82 0.06 0  0.83 0.06 0  0.84 0.06 0  0.85 0.06 0  0.86 0.06 0  0.87 0.06 0  0.88 0.06 0  0.89 0.06 0  0.9 0.06 0  0.91 0.06 0  0.92 0.06 0  0.93 0.06 0  0.9399999999999999 0.06 0  0.95 0.06 0  0.96 0.06 0  0.97 0.06 0  0.98 0.06 0  0.99 0.06 0  1 0.06 0  0 0.07000000000000001 0  0.01 0.07000000000000001 0  0.02 0.07000000000000001 0  0.03 0.07000000000000001 0  0.04 0.07000000000000001 0  0.05 0.07000000000000001 0  0.06 0.07000000000000001 0  0.07000000000000001 0.07000000000000001 0  0.08 0.07000000000000001 0  0.09 0.07000000000000001 0  0.1 0.07000000000000001 0  0.11 0.07000000000000001 0  0.12 0.07000000000000001 0  0.13 0.07000000000000001 0  0.14 0.07000000000000001 0  0.15 0.07000000000000001 0  0.16 0.07000000000000001 0  0.17 0.0700
[...]
<PointData  Scalars="f_17"> 
<DataArray  type="Float64"  Name="f_17"  format="ascii">0.0000000000000000e+00  5.0000000000000000e+01  5.0000000000000000e+01  5.0000000000000000e+01  5.0000000000000000e+01  5.0000000000000000e+01  5.0000000000000000e+01  5.0000000000000000e+01  5.0000000000000000e+01  5.0000000000000000e+01  5.0000000000000000e+01  5.0000000000000000e+01  5.0000000000000000e+01  5.0000000000000000e+01  5.0000000000000000e+01  5.0000000000000000e+01  5.0000000000000000e+01  5.0000000000000000e+01  5.0000000000000000e+01  5.0000000000000000e+01  5.0000000000000000e+01  5.0000000000000000e+01  5.0000000000000000e+01  5.0000000000000000e+01  5.0000000000000000e+01  5.0000000000000000e+01  5.0000000000000000e+01  5.0000000000000000e+01  5.0000000000000000e+01  5.0000000000000000e+01  5.0000000000000000e+01  5.0000000000000000e+01  5.0000000000000000e+01  5.0000000000000000e+01  5.0000000000000000e+01  5.0000000000000000e+01  5.0000000000000000e+01  5.0000000000000000e+01  5.0000000000000000e+01  5.0000000000000000e+01  5.0000000000000000e+01  5.0000000000000000e+01  5.0000000000000000e+01  5.0000000000000000e+01  5.0000000000000000e+01  5.0000000000000000e+01  5.0000000000000000e+01  5.0000000000000000e+01  5.0000000000000000e+01  5.0000000000000000e+01  5.0000000000000000e+01  5.0000000000000000e+01  5.0000000000000000e+01  5.0000000000000000e+01  5.0000000000000000e+01  5.0000000000000000e+01  5.0000000000000000e+01  5.0000000000000000e+01  5.0000000000000000e+01  5.0000000000000000e+01  5.0000000000000000e+01  5.0000000000000000e+01  5.0000000000000000e+01  5.0000000000000000e+01  5.0000000000000000e+01  5.0000000000000000e+01  5.0000000000000000e+01  5.0000000000000000e+01  5.0000000000000000e+01  5.0000000000000000e+01  5.0000000000000000e+01  5.0000000000000000e+01  5.0000000000000000e+01  5.0000000000000000e+01  5.0000000000000000e+01  5.0000000000000000e+01  5.0000000000000000e+01  5.0000000000000000e+01  5.0000000000000000e+01  5.0000000000000000e+01  5.0000000000000000e+01  5.0000000000000000e+01  5.0000000000000000e+01  5.0000000000000000e+01  5.0000000000000000e+01  5.0000000000000000e+01  5.0000000000000000e+01  5.0000000000000000e+01  5.0000000000000000e+01  5.0000000000000000e+01  5.0000000000000000e+01  5.0000000000000000e+01  5.0000000000000000e+01  5.0000000000000000e+01  5.0000000000000000e+01  5.0000000000000000e+01  5.0000000000000000e+01  5.0000000000000000e+01  5.0000000000000000e+01  5.0000000000000000e+01  0.0000000000000000e+00  0.0000000000000000e+00  2.4950930667675195e+01  3.5155574783455549e+01  3.9613454345677248e+01  4.2007079941497132e+01  4.3473073011967820e+01  4.4451488271569822e+01  4.5144081135922946e+01  4.5655467858710459e+01  4.6045073230912955e+01  4.6349083427888409e+01  4.6590770488835510e+01  4.6785773482596802e+01  4.6944988209305194e+01  4.7076237989884646e+01  4.7185285095200413e+01  4.7276467274237099e+01  4.7353111902906889e+01  4.7417813335076467e+01  4.7472623397991690e+01  4.7519185190632726e+01  4.7558828953009744e+01  4.7592642001510193e+01  4.7621520581176206e+01  4.7646208884184482e+01  4.7667328812500891e+01  4.7685402966402371e+01  4.7700872607700511e+01  4.7714111848058039e+01  4.7725438968371556e+01  4.7735125533733573e+01  4.7743403796926508e+01  4.7750472759998786e+01  4.7756503173687626e+01  4.7761641688436598e+01  4.7766014321729770e+01  4.7769729369720785e+01  4.7772879863351292e+01  4.7775545647970809e+01  4.7777795149185685e+01  4.7779686875047503e+01  4.7781270694834696e+01  4.7782588926915452e+01  4.7783677262008439e+01  4.7784565543205368e+01  4.7785278420099282e+01  4.7785835891063677e+01  4.7786253744978147e+01  4.7786543911367701e+01  4.7786714725917889e+01  4.7786771116556302e+01  4.7786714713695027e+01  4.7786543886745882e+01  4.7786253707605326e+01  4.7785835840412446e+01  4.7785278355466666e+01  4.7784565463714038e+01  4.7783677166607653e+01  4.7782588814383011e+01  4.7781270563779358e+01  4.7779686723912477e+01  4.7777794976253304e+01  4.7775545451368714e+01  4.7772879641059781e+01  4.7769729119582507e+01  4.7766014041461112e+01  4.7761641375641311e+01  4.7756502825872850e+01  4.7750472374593485e+01  4.7743403371302279e+01  4.7735125065228146e+01  4.7725438454314620e+01  4.7714111285799270e+01  4.7700871994639954e+01  4.7685402300022375e+01  4.7667328090399664e+01  4.7646208104110428e+01  4.7621519741063018e+01  4.7592641099511667e+01  4.7558827987533562e+01  4.7519184160372802e+01  4.7472622301958303e+01  4.7417812172623037e+01  4.7353110673752163e+01  4.7276465978482697e+01  4.7185283733342033e+01  4.7076236562815730e+01  4.6944986718312599e+01  4.6785771929346147e+01  4.6590768875344999e+01  4.6349081756488452e+01  4.6045071504186851e+01  4.5655466079410118e+01  4.5144079306843572e+01  4.4451486395350038e+01  4.3473071090725448e+01  4.2007077976022074e+01  3.9613452333146483e+01  3.5155572708938436e+01  2.4950928462945217e+01  0.0000000000000000e+00  0.0000000000000000e+00  1.4648453580112543e+01  2.4804334833236275e+01  3.0991845888138808e+01  3.4852262932214636e+01  3.7401917731218674e+01  3.9176369083003969e+01  4.0464631547823032e+01  4.1431507450584476e+01  4.2176372416390954e+01  4.2762203313949144e+01  4.3230649206821774e+01  4.3610273170431384e+01  4.3921280685906076e+01  4.4178350474531157e+01  4.4392394041685485e+01  4.4571685981432040e+01  4.4722611462394816e+01  4.4850173429758733e+01  4.4958344740455537e+01  4.5050317712075113e+01  4.5128684276728180e+01  4.5195568240669317e+01  4.5252723882519867e+01  4.5301610498635853e+01  4.5343449499269184e+01  4.5379268668638709e+01  4.5409936859993060e+01  4.5436191477172201e+01  4.5458660454623356e+01  4.5477879996872495e+01  4.5494309016415663e+01  4.5508340976306812e+01  4.5520313673734677e+01  4.5530517375444099e+01  4.5539201622401215e+01  4.5546580950851734e+01  4.5552839723660796e+01  4.5558136225118908e+01  4.5562606141033612e+01  4.5566365521580082e+01  4.5569513305321273e+01  4.5572133467768673e+01  4.5574296845878621e+01  4.5576062680252896e+01  4.5577479908989325e+01  4.5578588240693762e+01  4.5579419028797574e+01  4.5579995964776117e+01  4.5580335603929527e+01  4.5580447733923826e+01  4.5580335593150828e+01  4.5579995943058869e+01  4.5579418995822287e+01  4.5578588195981396e+01  4.5577479851901671e+01  4.5576062609992775e+01  4.5574296761491240e+01  4.5572133368143106e+01  4.5569513189192243e+01  4.5566365387531157e+01  4.5562605987501392e+01  4.5558136050398389e+01  4.5552839525911956e+01  4.5546580728108083e+01  4.5539201372580443e+01  4.5530517096360121e+01  4.5520313363112379e+01  4.5508340631798511e+01  4.5494308635620271e+01  4.5477879577356752e+01  4.5458659993945162e+01  4.5436190972905919e+01  4.5409936309756944e+01  4.5379268070123160e+01  4.5343448850266604e+01  4.5301609797070704e+01  4.5252723126478912e+01  4.5195567428431147e+01  4.5128683406791168e+01  4.5050316783182922e+01  4.4958343751620141e+01  4.4850172380278352e+01  4.4722610351867040e+01  4.4571684809760526e+01  4.4392392809078864e+01  4.4178349181492607e+01  4.3921279333212091e+01  4.3610271759097692e+01  4.3230647738053094e+01  4.2762201789069422e+01  4.2176370836746393e+01  4.1431505817410262e+01  4.0464629862052355e+01  3.9176367344979901e+01  3.7401915940226637e+01  3.4852261085663486e+01  3.0991843980121985e+01  2.4804332853105716e+01  1.4648451524678455e+01  0.0000000000000000e+00  0.0000000000000000e+00  1.0093354230033897e+01  1.8422689361506439e+01  2.4562046732553846e+01  2.8934164660591069e+01  3.2071245806756593e+01  3.4371974439552801e+01  3.6100595124939183e+01  3.7428589313408182e+01  3.8468617696523403e+01  3.9296441418697441e+01  3.9964344294423235e+01  4.0509330835288111e+01  4.0958212082767602e+01  4.1330830789302624e+01  4.1642155527705981e+01  4.1903672365658309e+01  4.2124330333125094e+01  4.2311197076479750e+01  4.2469922253042490e+01  4.2605070829335972e+01  4.2720366710579384e+01  4.2818873502695794e+01  4.2903130496084913e+01  4.2975256285677133e+01  4.3037028680225156e+01  4.3089947019259995e+01  4.3135281282077308e+01  4.3174111169683400e+01  4.3207357494277268e+01  4.3235807608198755e+01  4.3260136170168337e+01  4.3280922230558666e+01  4.3298663384947851e+01  4.3313787572582193e+01  4.3326662967057189e+01  4.3337606308831916e+01  4.3346889954791344e+01  4.3354747862974641e+01  4.3361380686431517e+01  4.3366960115765053e+01  4.3371632582904915e+01  4.3375522417270126e+01  4.3378734528406540e+01  4.3381356675419269e+01  4.3383461372308041e+01  4.3385107469064515e+01  4.3386341440658768e+01  4.3387198409468553e+01  4.3387702921017045e+01  4.3387869487853663e+01  4.3387702911857019e+01  4.3387198391004112e+01  4.3386341412601105e+01  4.3385107430980305e+01  4.3383461323619649e+01  4.3381356615404918e+01  4.3378734456200696e+01  4.3375522331864602e+01  4.3371632483150208e+01  4.3366960000372835e+01  4.3361380553977718e+01  4.3354747711903855e+01  4.3346889783422753e+01  4.3337606115366476e+01  4.3326662749586781e+01  4.3313787329100435e+01  4.3298663113363268e+01  4.3280921928709517e+01  4.3260135835839847e+01  4.3235807239142439e+01  4.3207357088231987e+01  4.3174110724398425e+01  4.3135280795337046e+01  4.3089946488909504e+01  4.3037028104197027e+01  4.2975255662018093e+01  4.2903129822982216e+01  4.2818872778502680e+01  4.2720365933838345e+01  4.2605069998799152e+01  4.2469921367688549e+01  4.2311196135525329e+01  4.2124329336030080e+01  4.1903671312123926e+01  4.1642154417663384e+01  4.1330829622890747e+01  4.0958210860298465e+01  4.0509329557196558e+01  3.9964342961197950e+01  3.9296440030788659e+01  3.8468616254220848e+01  3.7428587816678856e+01  3.6100593573209366e+01  3.4371972831411192e+01  3.2071244139550366e+01  2.8934162929920600e+01  2.4562044931890849e+01  1.8422687483002438e+01  1.0093352267558844e+01  0.0000000000000000e+00  0.0000000000000000e+00  7.6034212043600595e+00  1.4369959685907888e+01  1.9902212427136842e+01  2.4227075975264579e+01  2.7558508033370295e+01  3.0129965590812095e+01  3.2133962104641469e+01  3.3714780808671058e+01  3.4977169706481440e+01  3.5996802253659361e+01  3.6828737415357352e+01  3.7513532659773794e+01  3.8081493717299651e+01  3.8555600191872600e+01  3.8953525959464265e+01  3.9289047421170665e+01  3.9573037016294521e+01  3.9814173473269335e+01  4.0019456455400622e+01  4.0194584459380138e+01  4.0344235890131877e+01  4.0472280707450338e+01  4.0581941672076361e+01  4.0675918568271818e+01  4.0756484919735250e+01  4.0825564047431264e+01  4.0884789452042213e+01  4.0935553184220765e+01  4.0979044922502716e+01  4.1016283797355790e+01  4.1048144502796859e+01  4.1075378871034331e+01  4.1098633813730430e+01  4.1118466329828330e+01  4.1135356126110366e+01  4.1149716279650725e+01  4.1161902281645311e+01  4.1172219732866729e+01  4.1180930907168367e+01  4.1188260357311648e+01  4.1194399704141077e+01  4.1199511723701690e+01  4.1203733825697675e+01  4.1207180999542594e+01  4.1209948290225292e+01  4.1212112854606893e+01  4.1213735639021380e+01  4.1214862710742679e+01  4.1215526268669976e+01  4.1215745352179432e+01  4.1215526261285241e+01  4.1214862695843188e+01  4.1213735616346952e+01  4.1212112823767043e+01  4.1209948250698545e+01  4.1207180950676680e+01  4.1203733766709156e+01  4.1199511653676105e+01  4.1194399622033664e+01  4.1188260261948848e+01  4.1180930797249701e+01  4.1172219606968000e+01  4.1161902138223468e+01  4.1149716117049614e+01  4.1135355942568275e+01  4.1118466123487472e+01  4.1098633582648183e+01  4.1075378613196854e+01  4.1048144216134439e+01  4.1016283479760098e+01  4.0979044571846465e+01  4.0935552798378609e+01  4.0884789028913374e+01  4.0825563584963255e+01  4.0756484415948137e+01  4.0675918021282747e+01  4.0581941080123087e+01  4.0472280068913825e+01  4.0344235203556366e+01  4.0194583723489949e+01  4.0019455669112510e+01  3.9814172635699450e+01  3.9573036126757906e+01  3.9289046479172733e+01  3.8953524964682089e+01  3.8555599144123946e+01  3.8081492616498068e+01  3.7513531505867036e+01  3.6828736208245267e+01  3.5996800993087746e+01  3.4977168391906197e+01  3.3714779439085369e+01  3.2133960678357461e+01  3.0129964105191007e+01  2.7558506484505799e+01  2.4227074357669558e+01  1.9902210733581366e+01  1.4369957907575616e+01  7.6034193307322058e+00  0.0000000000000000e+00  0.0000000000000000e+00  6.0423236098103699e+00  1.1630394226855502e+01  1.6481008283665577e+01  2.0518192180099430e+01  2.3803542372150094e+01  2.6454131594218847e+01  2.8592122435194188e+01  3.0323936260104169e+01  3.1735494208240357e+01  3.2893921101541679e+01  3.3851032965659101e+01  3.4646781485898636e+01  3.5312109190860191e+01  3.5871158545286946e+01  3.6342931359214141e+01  3.6742521287016153e+01  3.7082027548959395e+01  3.7371234557142984e+01  3.7618120538208423e+01  3.7829241127758451e+01  3.8010021149073822e+01  3.8164978536105892e+01  3.8297897733260037e+01  3.8411965174522592e+01  3.8509876064750117e+01  3.8593919261324501e+01  3.8666045305113961e+01  3.8727921379310018e+01  3.8780976045566149e+01  3.8826435922312612e+01  3.8865355962068726e+01  3.8898644604770752e+01  3.8927084798193086e+01  3.8951351659775511e+01  3.8972027388739932e+01  3.8989613910304534e+01  3.9004543635559060e+01  3.9017188644128467e+01  3.9027868536898545e+01  3.9036857158901711e+01  3.9044388355017404e+01  3.9050660891205695e+01  3.9055842649858761e+01  3.9060074188223552e+01  3.9063471732715193e+01  3.9066129668519842e+01  3.9068122572570147e+01  3.9069506828284830e+01  3.9070321852010629e+01  3.9070590953579092e+01  3.9070321846538846e+01  3.9069506817224578e+01  3.9068122555687751e+01  3.9066129645464130e+01  3.9063471703016567e+01  3.9060074151293080e+01  3.9055842604987362e+01  3.9050660837563363e+01  3.9044388291652766e+01  3.9036857084742230e+01  3.9027868450751242e+01  3.9017188544681837e+01  3.9004543521386161e+01  3.8989613779867405e+01  3.8972027240395533e+01  3.8951351491783548e+01  3.8927084608725785e+01  3.8898644391924634e+01  3.8865355723878395e+01  3.8826435656766719e+01  3.8780975750625231e+01  3.8727921052926256e+01  3.8666044945252061e+01  3.8593918865984286e+01  3.8509875631989345e+01  3.8411964702479899e+01  3.8297897220177319e+01  3.8164977980349143e+01  3.8010020549151378e+01  3.7829240482335841e+01  3.7618119846118276e+01  3.7371233817389033e+01  3.7082026760712957e+01  3.6742520449603305e+01  3.6342930472092291e+01  3.5871157608008630e+01  3.5312108203021722e+01  3.4646780447071542e+01  3.3851031875301217e+01  3.2893919958884346e+01  3.1735493012148385e+01  3.0323935008903984e+01  2.8592121126467369e+01  2.6454130224562359e+01  2.3803540936913841e+01  2.0518190673129876e+01  1.6481006697087523e+01  1.1630392550835142e+01  6.0423218319785006e+00  0.0000000000000000e+00  0.0000000000000000e+00  4.9702859506440289e+00  9.6689917359017503e+00  1.3900584140429210e+01  1.7575164309456014e+01  2.0690654549338173e+01  2.3296585960584629e+01  2.5463005526329372e+01  2.7261651138902650e+01  2.8757199342542624e+01  3.0004474202947527e+01  3.1048530559231466e+01  3.1925855337587574e+01  3.2665835657316549e+01  3.3292137001946323e+01  3.3823873353618431e+01  3.4276554853452510e+01  3.4662837542918929e+01  3.4993110068349665e+01  3.5275951030985063e+01  3.5518485629898329e+01  3.5726664595312620e+01  3.5905483342326015e+01  3.6059155116643865e+01  3.6191248636141843e+01  3.6304798221493385e+01  3.6402392502496518e+01  3.6486246346435287e+01  3.6558259568314888e+01  3.6620065162383504e+01  3.6673069173262888e+01  3.6718483853157068e+01  3.6757355391644573e+01  3.6790587228699231e+01  3.6818959749170325e+01  3.6843146992580387e+01  3.6863730884265919e+01  3.6881213393952677e+01  3.6896026949324579e+01  3.6908543370085582e+01  3.6919081538688417e+01  3.6927913984448864e+01  3.6935272525988708e+01  3.6941353091159755e+01  3.6946319812480411e+01  3.6950308478649099e+01  3.6953429408081000e+01  3.6955769798013584e+01  3.6957395592048492e+01  3.6958352899629766e+01  3.6958668992584030e+01  3.6958352896188977e+01  3.6957395585062486e+01  3.6955769787273006e+01  3.6953429393270625e+01  3.6950308459346410e+01  3.6946319788153858e+01  3.6941353061166915e+01  3.6935272489574601e+01  3.6927913940744119e+01  3.6919081486708095e+01  3.6908543308728312e+01  3.6896026877373203e+01  3.6881213310075417e+01  3.6863730787019044e+01  3.6843146880412675e+01  3.6818959620429126e+01  3.6790587081638677e+01  3.6757355224435685e+01  3.6718483663900180e+01  3.6673068960002425e+01  3.6620064923124566e+01  3.6558259301041851e+01  3.6486246049132340e+01  3.6402392173169169e+01  3.6304797858190909e+01  3.6191248236979838e+01  3.6059154679826378e+01  3.5905482866165990e+01  3.5726664078250025e+01  3.5518485070514458e+01  3.5275950428012109e+01  3.4993109420673690e+01  3.4662836849575477e+01  3.4276554113612193e+01  3.3823872566561732e+01  3.3292136167025021e+01  3.2665834773900087e+01  3.1925854404991863e+01  3.1048529576628152e+01  3.0004473169250769e+01  2.8757198256271451e+01  2.7261649998016576e+01  2.5463004328037506e+01  2.3296584701130385e+01  2.0690653223767200e+01  1.7575162911376061e+01  1.3900582661757939e+01  9.6689901665556039e+00  4.9702842780669929e+00  0.0000000000000000e+00  0.0000000000000000e+00  4.1858182058697739e+00  8.1972675957941945e+00  1.1897488238977186e+01  1.5206532071999323e+01  1.8098992195944760e+01  2.0588844910949035e+01  2.2712256493130710e+01  2.4514276009398493e+01  2.6040608476896281e+01  2.7333412079133605e+01  2.8429645591956525e+01  2.9360807477984331e+01  3.0153332517407563e+01  3.0829236174194779e+01  3.1406800046703275e+01  3.1901205846582691e+01  3.2325084589979774e+01  3.2688976158341909e+01  3.3001706658367311e+01  3.3270695212216921e+01  3.3502202249612210e+01  3.3701530243306202e+01  3.3873186192813513e+01  3.4021013503130128e+01  3.4148299421920285e+01  3.4257862948947711e+01  3.4352127112418195e+01  3.4433178691259734e+01  3.4502817816591026e+01  3.4562599377374646e+01  3.4613867756364492e+01  3.4657786109635865e+01  3.4695361157506895e+01  3.4727464261701797e+01  3.4754849411577439e+01  3.4778168622098740e+01  3.4797985150997029e+01  3.4814784866727422e+01  3.4828986038239215e+01  3.4840947768890189e+01  3.4850977257519830e+01  3.4859336037739688e+01  3.4866245320339729e+01  3.4871890542111153e+01  3.4876425206382450e+01  3.4879974085382173e+01  3.4882635841571052e+01  3.4884485113832639e+01  3.4885574104483211e+01  3.4885933694126344e+01  3.4885574103171336e+01  3.4884485111115666e+01  3.4882635837261766e+01  3.4879974079198050e+01  3.4876425197943355e+01  3.4871890530937016e+01  3.4866245305847379e+01  3.4859336019240061e+01  3.4850977234214596e+01  3.4840947739869087e+01  3.4828986002477606e+01  3.4814784823084921e+01  3.4797985098217048e+01  3.4778168558809433e+01  3.4754849336294178e+01  3.4727464172831695e+01  3.4695361053355271e+01  3.4657785988415071e+01  3.4613867616204914e+01  3.4562599216338491e+01  3.4502817632688142e+01  3.4433178482465699e+01  3.4352126876694435e+01  3.4257862684263344e+01  3.4148299126274729e+01  3.4021013174576233e+01  3.3873185829480562e+01  3.3701529843421447e+01  3.3502201811520052e+01  3.3270694734394503e+01  3.3001706139435399e+01  3.2688975597069110e+01  3.2325083985279079e+01  3.1901205197498342e+01  3.1406799352386209e+01  3.0829235433865126e+01  3.0153331730301769e+01  2.9360806643285514e+01  2.8429644708705993e+01  2.7333411146121897e+01  2.6040607492532271e+01  2.4514274971556169e+01  2.2712255398974555e+01  2.0588843756740001e+01  1.8098990976831367e+01  1.5206530781796195e+01  1.1897486869926473e+01  8.1972661382954612e+00  4.1858166481598298e+00  0.0000000000000000e+00  0.0000000000000000e+00  3.5845534205916292e+00  7.0509172844677703e+00  1.0300983855804647e+01  1.3269001533984779e+01  1.5923364720627514e+01  1.8260638982159016e+01  2.0296527852729085e+01  2.2057385900871420e+01  2.3573881558269516e+01  2.4876961189159402e+01  2.5995625709340924e+01  2.6955920305905185e+01  2.7780648127334121e+01  2.8489472765841800e+01  2.9099202768354250e+01  2.9624140389363994e+01  3.0076432539485936e+01  3.0466394513745477e+01  3.0802795138197222e+01  3.1093101377907750e+01  3.1343684947606487e