<?xml version="1.0"?>
<VTKFile type="UnstructuredGrid"  version="0.1"  >
<UnstructuredGrid>
<Piece  NumberOfPoints="10201" NumberOfCells="20000">
<Points>
<DataArray  type="Float64"  NumberOfComponents="3"  format="ascii">0 0 0  0.01 0 0  0.02 0 0  0.03 0 0  0.04 0 0  0.05 0 0  0.06 0 0  0.07000000000000001 0 0  0.08 0 0  0.09 0 0  0.1 0 0  0.11 0 0  0.12 0 0  0.13 0 0  0.14 0 0  0.15 0 0  0.16 0 0  0.17 0 0  0.18 0 0  0.19 0 0  0.2 0 0  0.21 0 0  0.22 0 0  0.23 0 0  0.24 0 0  0.25 0 0  0.26 0 0  0.27 0 0  0.28 0 0  0.29 0 0  0.3 0 0  0.31 0 0  0.32 0 0  0.33 0 0  0.34 0 0  0.35 0 0  0.36 0 0  0.37 0 0  0.38 0 0  0.39 0 0  0.4 0 0  0.41 0 0  0.42 0 0  0.43 0 0  0.44 0 0  0.45 0 0  0.46 0 0  0.47 0 0  0.48 0 0  0.49 0 0  0.5 0 0  0.51 0 0  0.52 0 0  0.53 0 0  0.54 0 0  0.55 0 0  0.5600000000000001 0 0  0.57 0 0  0.58 0 0  0.59 0 0  0.6 0 0  0.61 0 0  0.62 0 0  0.63 0 0  0.64 0 0  0.65 0 0  0.66 0 0  0.67 0 0  0.68 0 0  0.6899999999999999 0 0  0.7 0 0  0.71 0 0  0.72 0 0  0.73 0 0  0.74 0 0  0.75 0 0  0.76 0 0  0.77 0 0  0.78 0 0  0.79 0 0  0.8 0 0  0.8100000000000001 0 0  0.82 0 0  0.83 0 0  0.84 0 0  0.85 0 0  0.86 0 0  0.87 0 0  0.88 0 0  0.89 0 0  0.9 0 0  0.91 0 0  0.92 0 0  0.93 0 0  0.9399999999999999 0 0  0.95 0 0  0.96 0 0  0.97 0 0  0.98 0 0  0.99 0 0  1 0 0  0 0.01 0  0.01 0.01 0  0.02 0.01 0  0.03 0.01 0  0.04 0.01 0  0.05 0.01 0  0.06 0.01 0  0.07000000000000001 0.01 0  0.08 0.01 0  0.09 0.01 0  0.1 0.01 0  0.11 0.01 0  0.12 0.01 0  0.13 0.01 0  0.14 0.01 0  0.15 0.01 0  0.16 0.01 0  0.17 0.01 0  0.18 0.01 0  0.19 0.01 0  0.2 0.01 0  0.21 0.01 0  0.22 0.01 0  0.23 0.01 0  0.24 0.01 0  0.25 0.01 0  0.26 0.01 0  0.27 0.01 0  0.28 0.01 0  0.29 0.01 0  0.3 0.01 0  0.31 0.01 0  0.32 0.01 0  0.33 0.01 0  0.34 0.01 0  0.35 0.01 0  0.36 0.01 0  0.37 0.01 0  0.38 0.01 0  0.39 0.01 0  0.4 0.01 0  0.41 0.01 0  0.42 0.01 0  0.43 0.01 0  0.44 0.01 0  0.45 0.01 0  0.46 0.01 0  0.47 0.01 0  0.48 0.01 0  0.49 0.01 0  0.5 0.01 0  0.51 0.01 0  0.52 0.01 0  0.53 0.01 0  0.54 0.01 0  0.55 0.01 0  0.5600000000000001 0.01 0  0.57 0.01 0  0.58 0.01 0  0.59 0.01 0  0.6 0.01 0  0.61 0.01 0  0.62 0.01 0  0.63 0.01 0  0.64 0.01 0  0.65 0.01 0  0.66 0.01 0  0.67 0.01 0  0.68 0.01 0  0.6899999999999999 0.01 0  0.7 0.01 0  0.71 0.01 0  0.72 0.01 0  0.73 0.01 0  0.74 0.01 0  0.75 0.01 0  0.76 0.01 0  0.77 0.01 0  0.78 0.01 0  0.79 0.01 0  0.8 0.01 0  0.8100000000000001 0.01 0  0.82 0.01 0  0.83 0.01 0  0.84 0.01 0  0.85 0.01 0  0.86 0.01 0  0.87 0.01 0  0.88 0.01 0  0.89 0.01 0  0.9 0.01 0  0.91 0.01 0  0.92 0.01 0  0.93 0.01 0  0.9399999999999999 0.01 0  0.95 0.01 0  0.96 0.01 0  0.97 0.01 0  0.98 0.01 0  0.99 0.01 0  1 0.01 0  0 0.02 0  0.01 0.02 0  0.02 0.02 0  0.03 0.02 0  0.04 0.02 0  0.05 0.02 0  0.06 0.02 0  0.07000000000000001 0.02 0  0.08 0.02 0  0.09 0.02 0  0.1 0.02 0  0.11 0.02 0  0.12 0.02 0  0.13 0.02 0  0.14 0.02 0  0.15 0.02 0  0.16 0.02 0  0.17 0.02 0  0.18 0.02 0  0.19 0.02 0  0.2 0.02 0  0.21 0.02 0  0.22 0.02 0  0.23 0.02 0  0.24 0.02 0  0.25 0.02 0  0.26 0.02 0  0.27 0.02 0  0.28 0.02 0  0.29 0.02 0  0.3 0.02 0  0.31 0.02 0  0.32 0.02 0  0.33 0.02 0  0.34 0.02 0  0.35 0.02 0  0.36 0.02 0  0.37 0.02 0  0.38 0.02 0  0.39 0.02 0  0.4 0.02 0  0.41 0.02 0  0.42 0.02 0  0.43 0.02 0  0.44 0.02 0  0.45 0.02 0  0.46 0.02 0  0.47 0.02 0  0.48 0.02 0  0.49 0.02 0  0.5 0.02 0  0.51 0.02 0  0.52 0.02 0  0.53 0.02 0  0.54 0.02 0  0.55 0.02 0  0.5600000000000001 0.02 0  0.57 0.02 0  0.58 0.02 0  0.59 0.02 0  0.6 0.02 0  0.61 0.02 0  0.62 0.02 0  0.63 0.02 0  0.64 0.02 0  0.65 0.02 0  0.66 0.02 0  0.67 0.02 0  0.68 0.02 0  0.6899999999999999 0.02 0  0.7 0.02 0  0.71 0.02 0  0.72 0.02 0  0.73 0.02 0  0.74 0.02 0  0.75 0.02 0  0.76 0.02 0  0.77 0.02 0  0.78 0.02 0  0.79 0.02 0  0.8 0.02 0  0.8100000000000001 0.02 0  0.82 0.02 0  0.83 0.02 0  0.84 0.02 0  0.85 0.02 0  0.86 0.02 0  0.87 0.02 0  0.88 0.02 0  0.89 0.02 0  0.9 0.02 0  0.91 0.02 0  0.92 0.02 0  0.93 0.02 0  0.9399999999999999 0.02 0  0.95 0.02 0  0.96 0.02 0  0.97 0.02 0  0.98 0.02 0  0.99 0.02 0  1 0.02 0  0 0.03 0  0.01 0.03 0  0.02 0.03 0  0.03 0.03 0  0.04 0.03 0  0.05 0.03 0  0.06 0.03 0  0.07000000000000001 0.03 0  0.08 0.03 0  0.09 0.03 0  0.1 0.03 0  0.11 0.03 0  0.12 0.03 0  0.13 0.03 0  0.14 0.03 0  0.15 0.03 0  0.16 0.03 0  0.17 0.03 0  0.18 0.03 0  0.19 0.03 0  0.2 0.03 0  0.21 0.03 0  0.22 0.03 0  0.23 0.03 0  0.24 0.03 0  0.25 0.03 0  0.26 0.03 0  0.27 0.03 0  0.28 0.03 0  0.29 0.03 0  0.3 0.03 0  0.31 0.03 0  0.32 0.03 0  0.33 0.03 0  0.34 0.03 0  0.35 0.03 0  0.36 0.03 0  0.37 0.03 0  0.38 0.03 0  0.39 0.03 0  0.4 0.03 0  0.41 0.03 0  0.42 0.03 0  0.43 0.03 0  0.44 0.03 0  0.45 0.03 0  0.46 0.03 0  0.47 0.03 0  0.48 0.03 0  0.49 0.03 0  0.5 0.03 0  0.51 0.03 0  0.52 0.03 0  0.53 0.03 0  0.54 0.03 0  0.55 0.03 0  0.5600000000000001 0.03 0  0.57 0.03 0  0.58 0.03 0  0.59 0.03 0  0.6 0.03 0  0.61 0.03 0  0.62 0.03 0  0.63 0.03 0  0.64 0.03 0  0.65 0.03 0  0.66 0.03 0  0.67 0.03 0  0.68 0.03 0  0.6899999999999999 0.03 0  0.7 0.03 0  0.71 0.03 0  0.72 0.03 0  0.73 0.03 0  0.74 0.03 0  0.75 0.03 0  0.76 0.03 0  0.77 0.03 0  0.78 0.03 0  0.79 0.03 0  0.8 0.03 0  0.8100000000000001 0.03 0  0.82 0.03 0  0.83 0.03 0  0.84 0.03 0  0.85 0.03 0  0.86 0.03 0  0.87 0.03 0  0.88 0.03 0  0.89 0.03 0  0.9 0.03 0  0.91 0.03 0  0.92 0.03 0  0.93 0.03 0  0.9399999999999999 0.03 0  0.95 0.03 0  0.96 0.03 0  0.97 0.03 0  0.98 0.03 0  0.99 0.03 0  1 0.03 0  0 0.04 0  0.01 0.04 0  0.02 0.04 0  0.03 0.04 0  0.04 0.04 0  0.05 0.04 0  0.06 0.04 0  0.07000000000000001 0.04 0  0.08 0.04 0  0.09 0.04 0  0.1 0.04 0  0.11 0.04 0  0.12 0.04 0  0.13 0.04 0  0.14 0.04 0  0.15 0.04 0  0.16 0.04 0  0.17 0.04 0  0.18 0.04 0  0.19 0.04 0  0.2 0.04 0  0.21 0.04 0  0.22 0.04 0  0.23 0.04 0  0.24 0.04 0  0.25 0.04 0  0.26 0.04 0  0.27 0.04 0  0.28 0.04 0  0.29 0.04 0  0.3 0.04 0  0.31 0.04 0  0.32 0.04 0  0.33 0.04 0  0.34 0.04 0  0.35 0.04 0  0.36 0.04 0  0.37 0.04 0  0.38 0.04 0  0.39 0.04 0  0.4 0.04 0  0.41 0.04 0  0.42 0.04 0  0.43 0.04 0  0.44 0.04 0  0.45 0.04 0  0.46 0.04 0  0.47 0.04 0  0.48 0.04 0  0.49 0.04 0  0.5 0.04 0  0.51 0.04 0  0.52 0.04 0  0.53 0.04 0  0.54 0.04 0  0.55 0.04 0  0.5600000000000001 0.04 0  0.57 0.04 0  0.58 0.04 0  0.59 0.04 0  0.6 0.04 0  0.61 0.04 0  0.62 0.04 0  0.63 0.04 0  0.64 0.04 0  0.65 0.04 0  0.66 0.04 0  0.67 0.04 0  0.68 0.04 0  0.6899999999999999 0.04 0  0.7 0.04 0  0.71 0.04 0  0.72 0.04 0  0.73 0.04 0  0.74 0.04 0  0.75 0.04 0  0.76 0.04 0  0.77 0.04 0  0.78 0.04 0  0.79 0.04 0  0.8 0.04 0  0.8100000000000001 0.04 0  0.82 0.04 0  0.83 0.04 0  0.84 0.04 0  0.85 0.04 0  0.86 0.04 0  0.87 0.04 0  0.88 0.04 0  0.89 0.04 0  0.9 0.04 0  0.91 0.04 0  0.92 0.04 0  0.93 0.04 0  0.9399999999999999 0.04 0  0.95 0.04 0  0.96 0.04 0  0.97 0.04 0  0.98 0.04 0  0.99 0.04 0  1 0.04 0  0 0.05 0  0.01 0.05 0  0.02 0.05 0  0.03 0.05 0  0.04 0.05 0  0.05 0.05 0  0.06 0.05 0  0.07000000000000001 0.05 0  0.08 0.05 0  0.09 0.05 0  0.1 0.05 0  0.11 0.05 0  0.12 0.05 0  0.13 0.05 0  0.14 0.05 0  0.15 0.05 0  0.16 0.05 0  0.17 0.05 0  0.18 0.05 0  0.19 0.05 0  0.2 0.05 0  0.21 0.05 0  0.22 0.05 0  0.23 0.05 0  0.24 0.05 0  0.25 0.05 0  0.26 0.05 0  0.27 0.05 0  0.28 0.05 0  0.29 0.05 0  0.3 0.05 0  0.31 0.05 0  0.32 0.05 0  0.33 0.05 0  0.34 0.05 0  0.35 0.05 0  0.36 0.05 0  0.37 0.05 0  0.38 0.05 0  0.39 0.05 0  0.4 0.05 0  0.41 0.05 0  0.42 0.05 0  0.43 0.05 0  0.44 0.05 0  0.45 0.05 0  0.46 0.05 0  0.47 0.05 0  0.48 0.05 0  0.49 0.05 0  0.5 0.05 0  0.51 0.05 0  0.52 0.05 0  0.53 0.05 0  0.54 0.05 0  0.55 0.05 0  0.5600000000000001 0.05 0  0.57 0.05 0  0.58 0.05 0  0.59 0.05 0  0.6 0.05 0  0.61 0.05 0  0.62 0.05 0  0.63 0.05 0  0.64 0.05 0  0.65 0.05 0  0.66 0.05 0  0.67 0.05 0  0.68 0.05 0  0.6899999999999999 0.05 0  0.7 0.05 0  0.71 0.05 0  0.72 0.05 0  0.73 0.05 0  0.74 0.05 0  0.75 0.05 0  0.76 0.05 0  0.77 0.05 0  0.78 0.05 0  0.79 0.05 0  0.8 0.05 0  0.8100000000000001 0.05 0  0.82 0.05 0  0.83 0.05 0  0.84 0.05 0  0.85 0.05 0  0.86 0.05 0  0.87 0.05 0  0.88 0.05 0  0.89 0.05 0  0.9 0.05 0  0.91 0.05 0  0.92 0.05 0  0.93 0.05 0  0.9399999999999999 0.05 0  0.95 0.05 0  0.96 0.05 0  0.97 0.05 0  0.98 0.05 0  0.99 0.05 0  1 0.05 0  0 0.06 0  0.01 0.06 0  0.02 0.06 0  0.03 0.06 0  0.04 0.06 0  0.05 0.06 0  0.06 0.06 0  0.07000000000000001 0.06 0  0.08 0.06 0  0.09 0.06 0  0.1 0.06 0  0.11 0.06 0  0.12 0.06 0  0.13 0.06 0  0.14 0.06 0  0.15 0.06 0  0.16 0.06 0  0.17 0.06 0  0.18 0.06 0  0.19 0.06 0  0.2 0.06 0  0.21 0.06 0  0.22 0.06 0  0.23 0.06 0  0.24 0.06 0  0.25 0.06 0  0.26 0.06 0  0.27 0.06 0  0.28 0.06 0  0.29 0.06 0  0.3 0.06 0  0.31 0.06 0  0.32 0.06 0  0.33 0.06 0  0.34 0.06 0  0.35 0.06 0  0.36 0.06 0  0.37 0.06 0  0.38 0.06 0  0.39 0.06 0  0.4 0.06 0  0.41 0.06 0  0.42 0.06 0  0.43 0.06 0  0.44 0.06 0  0.45 0.06 0  0.46 0.06 0  0.47 0.06 0  0.48 0.06 0  0.49 0.06 0  0.5 0.06 0  0.51 0.06 0  0.52 0.06 0  0.53 0.06 0  0.54 0.06 0  0.55 0.06 0  0.5600000000000001 0.06 0  0.57 0.06 0  0.58 0.06 0  0.59 0.06 0  0.6 0.06 0  0.61 0.06 0  0.62 0.06 0  0.63 0.06 0  0.64 0.06 0  0.65 0.06 0  0.66 0.06 0  0.67 0.06 0  0.68 0.06 0  0.6899999999999999 0.06 0  0.7 0.06 0  0.71 0.06 0  0.72 0.06 0  0.73 0.06 0  0.74 0.06 0  0.75 0.06 0  0.76 0.06 0  0.77 0.06 0  0.78 0.06 0  0.79 0.06 0  0.8 0.06 0  0.8100000000000001 0.06 0  0.82 0.06 0  0.83 0.06 0  0.84 0.06 0  0.85 0.06 0  0.86 0.06 0  0.87 0.06 0  0.88 0.06 0  0.89 0.06 0  0.9 0.06 0  0.91 0.06 0  0.92 0.06 0  0.93 0.06 0  0.9399999999999999 0.06 0  0.95 0.06 0  0.96 0.06 0  0.97 0.06 0  0.98 0.06 0  0.99 0.06 0  1 0.06 0  0 0.07000000000000001 0  0.01 0.07000000000000001 0  0.02 0.07000000000000001 0  0.03 0.07000000000000001 0  0.04 0.07000000000000001 0  0.05 0.07000000000000001 0  0.06 0.07000000000000001 0  0.07000000000000001 0.07000000000000001 0  0.08 0.07000000000000001 0  0.09 0.07000000000000001 0  0.1 0.07000000000000001 0  0.11 0.07000000000000001 0  0.12 0.07000000000000001 0  0.13 0.07000000000000001 0  0.14 0.07000000000000001 0  0.15 0.07000000000000001 0  0.16 0.07000000000000001 0  0.17 0.0700
[...]
<PointData  Scalars="f_17"> 
<DataArray  type="Float64"  Name="f_17"  format="ascii">0.0000000000000000e+00  5.0000000000000000e+01  5.0000000000000000e+01  5.0000000000000000e+01  5.0000000000000000e+01  5.0000000000000000e+01  5.0000000000000000e+01  5.0000000000000000e+01  5.0000000000000000e+01  5.0000000000000000e+01  5.0000000000000000e+01  5.0000000000000000e+01  5.0000000000000000e+01  5.0000000000000000e+01  5.0000000000000000e+01  5.0000000000000000e+01  5.0000000000000000e+01  5.0000000000000000e+01  5.0000000000000000e+01  5.0000000000000000e+01  5.0000000000000000e+01  5.0000000000000000e+01  5.0000000000000000e+01  5.0000000000000000e+01  5.0000000000000000e+01  5.0000000000000000e+01  5.0000000000000000e+01  5.0000000000000000e+01  5.0000000000000000e+01  5.0000000000000000e+01  5.0000000000000000e+01  5.0000000000000000e+01  5.0000000000000000e+01  5.0000000000000000e+01  5.0000000000000000e+01  5.0000000000000000e+01  5.0000000000000000e+01  5.0000000000000000e+01  5.0000000000000000e+01  5.0000000000000000e+01  5.0000000000000000e+01  5.0000000000000000e+01  5.0000000000000000e+01  5.0000000000000000e+01  5.0000000000000000e+01  5.0000000000000000e+01  5.0000000000000000e+01  5.0000000000000000e+01  5.0000000000000000e+01  5.0000000000000000e+01  5.0000000000000000e+01  5.0000000000000000e+01  5.0000000000000000e+01  5.0000000000000000e+01  5.0000000000000000e+01  5.0000000000000000e+01  5.0000000000000000e+01  5.0000000000000000e+01  5.0000000000000000e+01  5.0000000000000000e+01  5.0000000000000000e+01  5.0000000000000000e+01  5.0000000000000000e+01  5.0000000000000000e+01  5.0000000000000000e+01  5.0000000000000000e+01  5.0000000000000000e+01  5.0000000000000000e+01  5.0000000000000000e+01  5.0000000000000000e+01  5.0000000000000000e+01  5.0000000000000000e+01  5.0000000000000000e+01  5.0000000000000000e+01  5.0000000000000000e+01  5.0000000000000000e+01  5.0000000000000000e+01  5.0000000000000000e+01  5.0000000000000000e+01  5.0000000000000000e+01  5.0000000000000000e+01  5.0000000000000000e+01  5.0000000000000000e+01  5.0000000000000000e+01  5.0000000000000000e+01  5.0000000000000000e+01  5.0000000000000000e+01  5.0000000000000000e+01  5.0000000000000000e+01  5.0000000000000000e+01  5.0000000000000000e+01  5.0000000000000000e+01  5.0000000000000000e+01  5.0000000000000000e+01  5.0000000000000000e+01  5.0000000000000000e+01  5.0000000000000000e+01  5.0000000000000000e+01  5.0000000000000000e+01  5.0000000000000000e+01  0.0000000000000000e+00  0.0000000000000000e+00  2.4860829107798310e+01  3.4975927294947930e+01  3.9345377351993896e+01  4.1652218274782818e+01  4.3033566040714447e+01  4.3929926635087554e+01  4.4543455806483855e+01  4.4979113388585382e+01  4.5296607144496171e+01  4.5532343732200346e+01  4.5709753196714971e+01  4.5844571882886257e+01  4.5947735393947958e+01  4.6027053878481510e+01  4.6088228903298514e+01  4.6135496071546399e+01  4.6172045618560070e+01  4.6200306302575058e+01  4.6222142302546750e+01  4.6238993092399170e+01  4.6251974913898898e+01  4.6261955740478214e+01  4.6269611520342643e+01  4.6275468921305993e+01  4.6279938158602278e+01  4.6283338414652071e+01  4.6285917644824877e+01  4.6287868077008397e+01  4.6289338375528203e+01  4.6290443201381223e+01  4.6291270728644555e+01  4.6291888550396415e+01  4.6292348312774628e+01  4.6292689343721548e+01  4.6292941487316526e+01  4.6293127311111071e+01  4.6293263819570818e+01  4.6293363779469168e+01  4.6293436741312959e+01  4.6293489823461741e+01  4.6293528311639683e+01  4.6293556115363984e+01  4.6293576113864489e+01  4.6293590416936397e+01  4.6293600560477707e+01  4.6293607651944768e+01  4.6293612477363546e+01  4.6293615578679855e+01  4.6293617307937410e+01  4.6293617862920321e+01  4.6293617307357387e+01  4.6293615577462539e+01  4.6293612475389665e+01  4.6293607649023549e+01  4.6293600556331604e+01  4.6293590411179139e+01  4.6293576105972484e+01  4.6293556104637624e+01  4.6293528297154133e+01  4.6293489804004615e+01  4.6293436715306257e+01  4.6293363744872160e+01  4.6293263773761694e+01  4.6293127250742970e+01  4.6292941408145396e+01  4.6292689240402183e+01  4.6292348178622362e+01  4.6291888377112976e+01  4.6291270506007749e+01  4.6290442916900268e+01  4.6289338014068775e+01  4.6287867620396405e+01  4.6285917071440153e+01  4.6283337699029765e+01  4.6279937271064782e+01  4.6275467827653259e+01  4.6269610181635791e+01  4.6261954112954953e+01  4.6251972949063159e+01  4.6238990737328670e+01  4.6222139500460145e+01  4.6200302993693008e+01  4.6172041741283323e+01  4.6135491563958212e+01  4.6088223704972343e+01  4.6027047932547980e+01  4.5947728649339886e+01  4.5844564296641352e+01  4.5709744736176290e+01  4.5532334376911052e+01  4.5296596887538975e+01  4.4979102237062285e+01  4.4543443780737817e+01  4.3929913766067031e+01  4.3033552364329907e+01  4.1652203820315016e+01  3.9345362114700407e+01  3.4975911150469884e+01  2.4860811439367332e+01  0.0000000000000000e+00  0.0000000000000000e+00  1.4469931980902770e+01  2.4448400384664399e+01  3.0460707280074388e+01  3.4149174966061928e+01  3.6531114021813487e+01  3.8142976486841597e+01  3.9274569467439811e+01  4.0091375643102182e+01  4.0693331169529515e+01  4.1143849885027358e+01  4.1484894266465972e+01  4.1745220678089836e+01  4.1945114182253462e+01  4.2099228244785607e+01  4.2218355023369313e+01  4.2310567697864506e+01  4.2381980692381489e+01  4.2437269801416107e+01  4.2480036982537250e+01  4.2513071921818479e+01  4.2538543274447299e+01  4.2558140877433409e+01  4.2573183042831062e+01  4.2584698486170495e+01  4.2593489499440537e+01  4.2600181034964294e+01  4.2605259059998502e+01  4.2609100646575293e+01  4.2611997635810667e+01  4.2614175270758537e+01  4.2615806868896875e+01  4.2617025366567006e+01  4.2617932388042647e+01  4.2618605354554902e+01  4.2619103042096377e+01  4.2619469913281335e+01  4.2619739482391168e+01  4.2619936920024436e+01  4.2620081061571916e+01  4.2620185949884707e+01  4.2620262015321963e+01  4.2620316974555514e+01  4.2620356512037745e+01  4.2620384794075946e+01  4.2620404854318821e+01  4.2620418880598038e+01  4.2620428426017448e+01  4.2620434561568992e+01  4.2620437983051666e+01  4.2620439081423534e+01  4.2620437982686290e+01  4.2620434560799772e+01  4.2620428424763944e+01  4.2620418878731158e+01  4.2620404851649447e+01  4.2620384790338861e+01  4.2620356506870436e+01  4.2620316967469300e+01  4.2620262005664735e+01  4.2620185936793284e+01  4.2620081043911959e+01  4.2619936896314805e+01  4.2619739450710092e+01  4.2619469871151900e+01  4.2619102986347194e+01  4.2618605281153449e+01  4.2617932291898086e+01  4.2617025241300162e+01  4.2615806706576819e+01  4.2614175061606012e+01  4.2611997367870487e+01  4.2609100305364599e+01  4.2605258628140021e+01  4.2600180491818477e+01  4.2593488820755930e+01  4.2584697643777361e+01  4.2573182004408096e+01  4.2558139606383051e+01  4.2538541729918279e+01  4.2513070058915567e+01  4.2480034752757192e+01  4.2437267153341125e+01  4.2381977572650911e+01  4.2310564052426976e+01  4.2218350798992951e+01  4.2099223390770419e+01  4.1945108652253595e+01  4.1745214431906575e+01  4.1484887271623414e+01  4.1143842117889250e+01  4.0693322615650999e+01  4.0091366296433030e+01  3.9274559327871494e+01  3.8142965555360867e+01  3.6531102292048523e+01  3.4149162410017460e+01  3.0460693824549175e+01  2.4448385881429445e+01  1.4469916280357026e+01  0.0000000000000000e+00  0.0000000000000000e+00  9.8297333935677145e+00  1.7897085736508078e+01  2.3777715066613627e+01  2.7895901441889414e+01  3.0785290346328630e+01  3.2845883008209903e+01  3.4343092834049422e+01  3.5449405063250289e+01  3.6278307861901823e+01  3.6906207992582026e+01  3.7385852987753346e+01  3.7754534171919616e+01  3.8039181881972652e+01  3.8259603650422825e+01  3.8430594080550200e+01  3.8563344181264284e+01  3.8666405551239123e+01  3.8746365038065996e+01  3.8808326757272141e+01  3.8856263082977080e+01  3.8893274611503053e+01  3.8921785597536029e+01  3.8943692767102448e+01  3.8960479840659914e+01  3.8973306425710398e+01  3.8983077473916225e+01  3.8990497816147439e+01  3.8996115121429760e+01  3.9000353800686121e+01  3.9003541782357736e+01  3.9005931651746671e+01  3.9007717321133683e+01  3.9009047151214034e+01  3.9010034254398960e+01  3.9010764562130987e+01  3.9011303121175580e+01  3.9011698990542158e+01  3.9011989035937027e+01  3.9012200858552539e+01  3.9012355046590827e+01  3.9012466898922845e+01  3.9012547738905610e+01  3.9012605911178255e+01  3.9012647534070119e+01  3.9012677064122634e+01  3.9012697716365565e+01  3.9012711773744996e+01  3.9012720810925451e+01  3.9012725851134853e+01  3.9012727469394257e+01  3.9012725851053936e+01  3.9012720810749414e+01  3.9012711773443556e+01  3.9012697715888649e+01  3.9012677063394158e+01  3.9012647532979180e+01  3.9012605909566325e+01  3.9012547736549543e+01  3.9012466895511650e+01  3.9012355041695137e+01  3.9012200851584765e+01  3.9011989026099386e+01  3.9011698976760464e+01  3.9011303102015141e+01  3.9010764535691905e+01  3.9010034218186235e+01  3.9009047101979391e+01  3.9007717254685886e+01  3.9005931562726765e+01  3.9003541663978943e+01  3.9000353644436927e+01  3.8996114916744332e+01  3.8990497550049298e+01  3.8983077130645285e+01  3.8973305986349658e+01  3.8960479282783368e+01  3.8943692064471769e+01  3.8921784719880399e+01  3.8893273524420380e+01  3.8856261747998637e+01  3.8808325132132254e+01  3.8746363077213026e+01  3.8666403206613325e+01  3.8563341403350393e+01  3.8430590819685278e+01  3.8259599858304590e+01  3.8039177513270452e+01  3.7754529185837931e+01  3.7385847349339571e+01  3.6906201673507610e+01  3.6278300840377291e+01  3.5449397322657887e+01  3.4343084359785536e+01  3.2845873782116108e+01  3.0785280337986379e+01  2.7895890596227620e+01  2.3777703288984419e+01  1.7897072883353498e+01  9.8297192766899784e+00  0.0000000000000000e+00  0.0000000000000000e+00  7.2595361568344785e+00  1.3684322935930950e+01  1.8879057412608702e+01  2.2872641824699890e+01  2.5880911290719272e+01  2.8139036961800272e+01  2.9841054294907149e+01  3.1132554344430702e+01  3.2119364075400540e+01  3.2877999773047584e+01  3.3464126951236963e+01  3.3918679730824614e+01  3.4272122685205602e+01  3.4547393236477554e+01  3.4761942438202169e+01  3.4929166088769477e+01  3.5059422495701348e+01  3.5160767373317654e+01  3.5239492662590933e+01  3.5300527414006865e+01  3.5347740101498268e+01  3.5384169368324336e+01  3.5412201988989139e+01  3.5433711315259607e+01  3.5450165728015364e+01  3.5462714039675951e+01  3.5472252994664665e+01  3.5479480743043588e+01  3.5484939247282867e+01  3.5489047912748411e+01  3.5492130234453946e+01  3.5494434875781621e+01  3.5496152305172480e+01  3.5497427890872210e+01  3.5498372175479773e+01  3.5499068909891925e+01  3.5499581312088409e+01  3.5499956924096018e+01  3.5500231365944771e+01  3.5500431225070514e+01  3.5500576270766274e+01  3.5500681143810816e+01  3.5500756639588417e+01  3.5500810677448555e+01  3.5500849028571714e+01  3.5500875858237507e+01  3.5500894125322610e+01  3.5500905871409898e+01  3.5500912423497077e+01  3.5500914527461632e+01  3.5500912423761363e+01  3.5500905871953222e+01  3.5500894126174181e+01  3.5500875859441294e+01  3.5500849030185691e+01  3.5500810679543889e+01  3.5500756642246948e+01  3.5500681147120787e+01  3.5500576274815018e+01  3.5500431229932815e+01  3.5500231371664874e+01  3.5499956930661384e+01  3.5499581319392263e+01  3.5499068917681292e+01  3.5498372183284715e+01  3.5497427897912303e+01  3.5496152310234962e+01  3.5494434877066503e+01  3.5492130229380862e+01  3.5489047897720376e+01  3.5484939217404623e+01  3.5479480691793199e+01  3.5472252913520599e+01  3.5462713917707049e+01  3.5450165551445835e+01  3.5433711067028455e+01  3.5412201648330942e+01  3.5384168910406338e+01  3.5347739497156120e+01  3.5300526629626738e+01  3.5239491660188307e+01  3.5160766110860934e+01  3.5059420927718662e+01  3.4929164167259430e+01  3.4761940113841618e+01  3.4547390460080770e+01  3.4272119409339950e+01  3.3918675911429091e+01  3.3464122549024317e+01  3.2877994754401918e+01  3.2119358412414563e+01  3.1132548013665481e+01  2.9841047274414144e+01  2.8139029225945546e+01  2.5880902802465496e+01  2.2872632525423253e+01  1.8879047210494221e+01  1.3684311694525181e+01  7.2595236797168328e+00  0.0000000000000000e+00  0.0000000000000000e+00  5.6243576768195602e+00  1.0797047769255055e+01  1.5237407720422954e+01  1.8871893248872556e+01  2.1764375378451195e+01  2.4034004426196425e+01  2.5804788638982846e+01  2.7184736462672674e+01  2.8261079716455004e+01  2.9101968595265106e+01  2.9759958868263890e+01  3.0275463893288880e+01  3.0679624245021195e+01  3.0996536936843345e+01  3.1244939324995254e+01  3.1439469118695900e+01  3.1591607323095062e+01  3.1710387597093742e+01  3.1802934070041857e+01  3.1874872724277495e+01  3.1930648881754312e+01  3.1973774273577508e+01  3.2007020725545260e+01  3.2032572925091721e+01  3.2052149492979794e+01  3.2067099269154632e+01  3.2078478056373498e+01  3.2087109852635912e+01  3.2093635709113833e+01  3.2098552681036892e+01  3.2102244830488246e+01  3.2105007847804892e+01  3.2107068551345748e+01  3.2108600282175573e+01  3.2109735015454589e+01  3.2110572853094489e+01  3.2111189434585647e+01  3.2111641698895760e+01  3.2111972345485519e+01  3.2112213273271273e+01  3.2112388219995758e+01  3.2112514778678438e+01  3.2112605930745232e+01  3.2112671205523888e+01  3.2112717551744801e+01  3.2112749987406531e+01  3.2112772078930909e+01  3.2112786288165793e+01  3.2112794215830881e+01  3.2112796761880503e+01  3.2112794216490094e+01  3.2112786289531414e+01  3.2112772081099386e+01  3.2112749990527476e+01  3.2112717556026858e+01  3.2112671211242350e+01  3.2112605938250539e+01  3.2112514788406031e+01  3.2112388232475560e+01  3.2112213289136008e+01  3.2111972365476078e+01  3.2111641723861695e+01  3.2111189465477132e+01  3.2110572890942478e+01  3.2109735061334177e+01  3.2108600337146768e+01  3.2107068616365027e+01  3.2105007923600120e+01  3.2102244917389051e+01  3.2098552778752826e+01  3.2093635816453123e+01  3.2087109967160259e+01  3.2078478173986703e+01  3.2067099383628566e+01  3.2052149595426982e+01  3.2032573003402405e+01  3.2007020763816321e+01  3.1973774251571491e+01  3.1930648774436943e+01  3.1874872501491705e+01  3.1802933696382478e+01  3.1710387032047354e+01  3.1591606521503333e+01  3.1439468031583292e+01  3.1244937900773667e+01  3.0996535122864316e+01  3.0679621989391606e+01  3.0275461146800176e+01  2.9759955586212055e+01  2.9101964738863980e+01  2.8261075253479472e+01  2.7184731366920442e+01  2.5804782888133655e+01  2.4033997997702482e+01  2.1764368243252314e+01  1.8871885363029275e+01  1.5237399015071242e+01  1.0797038139025485e+01  5.6243469653470566e+00  0.0000000000000000e+00  0.0000000000000000e+00  4.4855635762926696e+00  8.7025335502181811e+00  1.2458308714757404e+01  1.5665795690422510e+01  1.8325544409292490e+01  2.0489487158675637e+01  2.2229805426105614e+01  2.3620074168954488e+01  2.4726488913612901e+01  2.5605064205133655e+01  2.6301716289197056e+01  2.6853472910956704e+01  2.7289957830612718e+01  2.7634791959541712e+01  2.7906791510046073e+01  2.8120947177613537e+01  2.8289207414703025e+01  2.8421099300798932e+01  2.8524219484928615e+01  2.8604622846616429e+01  2.8667131092017843e+01  2.8715578655186018e+01  2.8753009324187914e+01  2.8781833930384419e+01  2.8803957087215185e+01  2.8820879186182129e+01  2.8833778514361533e+01  2.8843577338834088e+01  2.8850995024205300e+01  2.8856590647042992e+01  2.8860797099747408e+01  2.8863948302998928e+01  2.8866300846697513e+01  2.8868051137080663e+01  2.8869348930050364e+01  2.8870307968530064e+01  2.8871014308087478e+01  2.8871532804890656e+01  2.8871912149235175e+01  2.8872188753129574e+01  2.8872389739081584e+01  2.8872535227070742e+01  2.8872640075853525e+01  2.8872715201634026e+01  2.8872768570398353e+01  2.8872805938694288e+01  2.8872831400355778e+01  2.8872847782779900e+01  2.8872856925143445e+01  2.8872859861774423e+01  2.8872856926234540e+01  2.8872847785044478e+01  2.8872831403962707e+01  2.8872805943907323e+01  2.8872768577588399e+01  2.8872715211295755e+01  2.8872640088625715e+01  2.8872535243760520e+01  2.8872389760691394e+01  2.8872188780886258e+01  2.8871912184619113e+01  2.8871532849663204e+01  2.8871014364312639e+01  2.8870308038586373e+01  2.8869349016627169e+01  2.8868051243151349e+01  2.8866300975461240e+01  2.8863948457780790e+01  2.8860797283845944e+01  2.8856590863513869e+01  2.8850995275569627e+01  2.8843577626702437e+01  2.8833778838967586e+01  2.8820879545825409e+01  2.8803957477619509e+01  2.8781834343989367e+01  2.8753009749402185e+01  2.8715579075645618e+01  2.8667131485906371e+01  2.8604623186118083e+01  2.8524219735895329e+01  2.8421099422717045e+01  2.8289207361041878e+01  2.8120946896622112e+01  2.7906790946035333e+01  2.7634791054644598e+01  2.7289956526954359e+01  2.6853471153094009e+01  2.6301714026605680e+01  2.5605061394440533e+01  2.4726485520202750e+01  2.3620070167537182e+01  2.2229800799834134e+01  2.0489481896472206e+01  1.8325538501189396e+01  1.5665789120939451e+01  1.2458301454538876e+01  8.7025255462389897e+00  4.4855547410137486e+00  0.0000000000000000e+00  0.0000000000000000e+00  3.6425673871669972e+00  7.1140969199193709e+00  1.0280996117798344e+01  1.3066445635068655e+01  1.5447970074242161e+01  1.7442226072822447e+01  1.9087764338991075e+01  2.0431688196360685e+01  2.1521403645014733e+01  2.2400404783162422e+01  2.3106620341926288e+01  2.3672161926562303e+01  2.4123738594592083e+01  2.4483326467480996e+01  2.4768885069083659e+01  2.4995026132777994e+01  2.5173599908506848e+01  2.5314192601808735e+01  2.5424541035238921e+01  2.5510875048048575e+01  2.5578198832576550e+01  2.5630521518676616e+01  2.5671045910825129e+01  2.5702322830886374e+01  2.5726377212605950e+01  2.5744810987034985e+01  2.5758886887757726e+01  2.5769596565547349e+01  2.5777715803538342e+01  2.5783849138035066e+01  2.5788465793162448e+01  2.5791928511074861e+01  2.5794516589032430e+01  2.5796444209412055e+01  2.5797874960345673e+01  2.5798933286800601e+01  2.5799713479554150e+01  2.5800286698689618e+01  2.5800706435696640e+01  2.5801012741265193e+01  2.5801235482097308e+01  2.5801396837511824e+01  2.5801513203544172e+01  2.5801596637114482e+01  2.5801655944330840e+01  2.5801697493949131e+01  2.5801725818427794e+01  2.5801744050022510e+01  2.5801754227217408e+01  2.5801757496827008e+01  2.5801754228763723e+01  2.5801744053234241e+01  2.5801725823549351e+01  2.5801697501362998e+01  2.5801655954576592e+01  2.5801596650914629e+01  2.5801513221836267e+01  2.5801396861487436e+01  2.5801235513246596e+01  2.5801012781426621e+01  2.5800706487110102e+01  2.5800286764050337e+01  2.5799713562063513e+01  2.5798933390208827e+01  2.5797875088979474e+01  2.5796444368178246e+01  2.5794516783386833e+01  2.5791928746943764e+01  2.5788466076802411e+01  2.5783849475815597e+01  2.5777716201632462e+01  2.5769597029515996e+01  2.5758887422018148e+01  2.5744811594209200e+01  2.5726377892753504e+01  2.5702323580638406e+01  2.5671046722451283e+01  2.5630522379133524e+01  2.5578199722604797e+01  2.5510875941403921e+01  2.5424541898157518e+01  2.5314193392815227e+01  2.5173600578674066e+01  2.4995026626532599e+01  2.4768885325622605e+01  2.4483326422816194e+01  2.4123738184174950e+01  2.3672161088359680e+01  2.3106619019730005e+01  2.2400402929825464e+01  2.1521401225232488e+01  2.0431685188570366e+01  1.9087760735964853e+01  1.7442221880594413e+01  1.5447965309144926e+01  1.3066440318850905e+01  1.0280990271028521e+01  7.1140905541612209e+00  3.6425604967965399e+00  0.0000000000000000e+00  0.0000000000000000e+00  2.9916496314620908e+00  5.8687244194575108e+00  8.5366602404416980e+00  1.0933100911538684e+01  1.3029623614087694e+01  1.4825705806459746e+01  1.6339643644911977e+01  1.7600027898882459e+01  1.8639381620578334e+01  1.9490111202243515e+01  2.0182281714891786e+01  2.0742616166134155e+01  2.1194228232844850e+01  2.1556751689759082e+01  2.1846658001504725e+01  2.2077642468642811e+01  2.2261015107246457e+01  2.2406065204440825e+01  2.2520386742902559e+01  2.2610161529154393e+01  2.2680401616607082e