<?xml version="1.0"?>
<VTKFile type="UnstructuredGrid"  version="0.1"  >
<UnstructuredGrid>
<Piece  NumberOfPoints="10201" NumberOfCells="20000">
<Points>
<DataArray  type="Float64"  NumberOfComponents="3"  format="ascii">0 0 0  0.01 0 0  0.02 0 0  0.03 0 0  0.04 0 0  0.05 0 0  0.06 0 0  0.07000000000000001 0 0  0.08 0 0  0.09 0 0  0.1 0 0  0.11 0 0  0.12 0 0  0.13 0 0  0.14 0 0  0.15 0 0  0.16 0 0  0.17 0 0  0.18 0 0  0.19 0 0  0.2 0 0  0.21 0 0  0.22 0 0  0.23 0 0  0.24 0 0  0.25 0 0  0.26 0 0  0.27 0 0  0.28 0 0  0.29 0 0  0.3 0 0  0.31 0 0  0.32 0 0  0.33 0 0  0.34 0 0  0.35 0 0  0.36 0 0  0.37 0 0  0.38 0 0  0.39 0 0  0.4 0 0  0.41 0 0  0.42 0 0  0.43 0 0  0.44 0 0  0.45 0 0  0.46 0 0  0.47 0 0  0.48 0 0  0.49 0 0  0.5 0 0  0.51 0 0  0.52 0 0  0.53 0 0  0.54 0 0  0.55 0 0  0.5600000000000001 0 0  0.57 0 0  0.58 0 0  0.59 0 0  0.6 0 0  0.61 0 0  0.62 0 0  0.63 0 0  0.64 0 0  0.65 0 0  0.66 0 0  0.67 0 0  0.68 0 0  0.6899999999999999 0 0  0.7 0 0  0.71 0 0  0.72 0 0  0.73 0 0  0.74 0 0  0.75 0 0  0.76 0 0  0.77 0 0  0.78 0 0  0.79 0 0  0.8 0 0  0.8100000000000001 0 0  0.82 0 0  0.83 0 0  0.84 0 0  0.85 0 0  0.86 0 0  0.87 0 0  0.88 0 0  0.89 0 0  0.9 0 0  0.91 0 0  0.92 0 0  0.93 0 0  0.9399999999999999 0 0  0.95 0 0  0.96 0 0  0.97 0 0  0.98 0 0  0.99 0 0  1 0 0  0 0.01 0  0.01 0.01 0  0.02 0.01 0  0.03 0.01 0  0.04 0.01 0  0.05 0.01 0  0.06 0.01 0  0.07000000000000001 0.01 0  0.08 0.01 0  0.09 0.01 0  0.1 0.01 0  0.11 0.01 0  0.12 0.01 0  0.13 0.01 0  0.14 0.01 0  0.15 0.01 0  0.16 0.01 0  0.17 0.01 0  0.18 0.01 0  0.19 0.01 0  0.2 0.01 0  0.21 0.01 0  0.22 0.01 0  0.23 0.01 0  0.24 0.01 0  0.25 0.01 0  0.26 0.01 0  0.27 0.01 0  0.28 0.01 0  0.29 0.01 0  0.3 0.01 0  0.31 0.01 0  0.32 0.01 0  0.33 0.01 0  0.34 0.01 0  0.35 0.01 0  0.36 0.01 0  0.37 0.01 0  0.38 0.01 0  0.39 0.01 0  0.4 0.01 0  0.41 0.01 0  0.42 0.01 0  0.43 0.01 0  0.44 0.01 0  0.45 0.01 0  0.46 0.01 0  0.47 0.01 0  0.48 0.01 0  0.49 0.01 0  0.5 0.01 0  0.51 0.01 0  0.52 0.01 0  0.53 0.01 0  0.54 0.01 0  0.55 0.01 0  0.5600000000000001 0.01 0  0.57 0.01 0  0.58 0.01 0  0.59 0.01 0  0.6 0.01 0  0.61 0.01 0  0.62 0.01 0  0.63 0.01 0  0.64 0.01 0  0.65 0.01 0  0.66 0.01 0  0.67 0.01 0  0.68 0.01 0  0.6899999999999999 0.01 0  0.7 0.01 0  0.71 0.01 0  0.72 0.01 0  0.73 0.01 0  0.74 0.01 0  0.75 0.01 0  0.76 0.01 0  0.77 0.01 0  0.78 0.01 0  0.79 0.01 0  0.8 0.01 0  0.8100000000000001 0.01 0  0.82 0.01 0  0.83 0.01 0  0.84 0.01 0  0.85 0.01 0  0.86 0.01 0  0.87 0.01 0  0.88 0.01 0  0.89 0.01 0  0.9 0.01 0  0.91 0.01 0  0.92 0.01 0  0.93 0.01 0  0.9399999999999999 0.01 0  0.95 0.01 0  0.96 0.01 0  0.97 0.01 0  0.98 0.01 0  0.99 0.01 0  1 0.01 0  0 0.02 0  0.01 0.02 0  0.02 0.02 0  0.03 0.02 0  0.04 0.02 0  0.05 0.02 0  0.06 0.02 0  0.07000000000000001 0.02 0  0.08 0.02 0  0.09 0.02 0  0.1 0.02 0  0.11 0.02 0  0.12 0.02 0  0.13 0.02 0  0.14 0.02 0  0.15 0.02 0  0.16 0.02 0  0.17 0.02 0  0.18 0.02 0  0.19 0.02 0  0.2 0.02 0  0.21 0.02 0  0.22 0.02 0  0.23 0.02 0  0.24 0.02 0  0.25 0.02 0  0.26 0.02 0  0.27 0.02 0  0.28 0.02 0  0.29 0.02 0  0.3 0.02 0  0.31 0.02 0  0.32 0.02 0  0.33 0.02 0  0.34 0.02 0  0.35 0.02 0  0.36 0.02 0  0.37 0.02 0  0.38 0.02 0  0.39 0.02 0  0.4 0.02 0  0.41 0.02 0  0.42 0.02 0  0.43 0.02 0  0.44 0.02 0  0.45 0.02 0  0.46 0.02 0  0.47 0.02 0  0.48 0.02 0  0.49 0.02 0  0.5 0.02 0  0.51 0.02 0  0.52 0.02 0  0.53 0.02 0  0.54 0.02 0  0.55 0.02 0  0.5600000000000001 0.02 0  0.57 0.02 0  0.58 0.02 0  0.59 0.02 0  0.6 0.02 0  0.61 0.02 0  0.62 0.02 0  0.63 0.02 0  0.64 0.02 0  0.65 0.02 0  0.66 0.02 0  0.67 0.02 0  0.68 0.02 0  0.6899999999999999 0.02 0  0.7 0.02 0  0.71 0.02 0  0.72 0.02 0  0.73 0.02 0  0.74 0.02 0  0.75 0.02 0  0.76 0.02 0  0.77 0.02 0  0.78 0.02 0  0.79 0.02 0  0.8 0.02 0  0.8100000000000001 0.02 0  0.82 0.02 0  0.83 0.02 0  0.84 0.02 0  0.85 0.02 0  0.86 0.02 0  0.87 0.02 0  0.88 0.02 0  0.89 0.02 0  0.9 0.02 0  0.91 0.02 0  0.92 0.02 0  0.93 0.02 0  0.9399999999999999 0.02 0  0.95 0.02 0  0.96 0.02 0  0.97 0.02 0  0.98 0.02 0  0.99 0.02 0  1 0.02 0  0 0.03 0  0.01 0.03 0  0.02 0.03 0  0.03 0.03 0  0.04 0.03 0  0.05 0.03 0  0.06 0.03 0  0.07000000000000001 0.03 0  0.08 0.03 0  0.09 0.03 0  0.1 0.03 0  0.11 0.03 0  0.12 0.03 0  0.13 0.03 0  0.14 0.03 0  0.15 0.03 0  0.16 0.03 0  0.17 0.03 0  0.18 0.03 0  0.19 0.03 0  0.2 0.03 0  0.21 0.03 0  0.22 0.03 0  0.23 0.03 0  0.24 0.03 0  0.25 0.03 0  0.26 0.03 0  0.27 0.03 0  0.28 0.03 0  0.29 0.03 0  0.3 0.03 0  0.31 0.03 0  0.32 0.03 0  0.33 0.03 0  0.34 0.03 0  0.35 0.03 0  0.36 0.03 0  0.37 0.03 0  0.38 0.03 0  0.39 0.03 0  0.4 0.03 0  0.41 0.03 0  0.42 0.03 0  0.43 0.03 0  0.44 0.03 0  0.45 0.03 0  0.46 0.03 0  0.47 0.03 0  0.48 0.03 0  0.49 0.03 0  0.5 0.03 0  0.51 0.03 0  0.52 0.03 0  0.53 0.03 0  0.54 0.03 0  0.55 0.03 0  0.5600000000000001 0.03 0  0.57 0.03 0  0.58 0.03 0  0.59 0.03 0  0.6 0.03 0  0.61 0.03 0  0.62 0.03 0  0.63 0.03 0  0.64 0.03 0  0.65 0.03 0  0.66 0.03 0  0.67 0.03 0  0.68 0.03 0  0.6899999999999999 0.03 0  0.7 0.03 0  0.71 0.03 0  0.72 0.03 0  0.73 0.03 0  0.74 0.03 0  0.75 0.03 0  0.76 0.03 0  0.77 0.03 0  0.78 0.03 0  0.79 0.03 0  0.8 0.03 0  0.8100000000000001 0.03 0  0.82 0.03 0  0.83 0.03 0  0.84 0.03 0  0.85 0.03 0  0.86 0.03 0  0.87 0.03 0  0.88 0.03 0  0.89 0.03 0  0.9 0.03 0  0.91 0.03 0  0.92 0.03 0  0.93 0.03 0  0.9399999999999999 0.03 0  0.95 0.03 0  0.96 0.03 0  0.97 0.03 0  0.98 0.03 0  0.99 0.03 0  1 0.03 0  0 0.04 0  0.01 0.04 0  0.02 0.04 0  0.03 0.04 0  0.04 0.04 0  0.05 0.04 0  0.06 0.04 0  0.07000000000000001 0.04 0  0.08 0.04 0  0.09 0.04 0  0.1 0.04 0  0.11 0.04 0  0.12 0.04 0  0.13 0.04 0  0.14 0.04 0  0.15 0.04 0  0.16 0.04 0  0.17 0.04 0  0.18 0.04 0  0.19 0.04 0  0.2 0.04 0  0.21 0.04 0  0.22 0.04 0  0.23 0.04 0  0.24 0.04 0  0.25 0.04 0  0.26 0.04 0  0.27 0.04 0  0.28 0.04 0  0.29 0.04 0  0.3 0.04 0  0.31 0.04 0  0.32 0.04 0  0.33 0.04 0  0.34 0.04 0  0.35 0.04 0  0.36 0.04 0  0.37 0.04 0  0.38 0.04 0  0.39 0.04 0  0.4 0.04 0  0.41 0.04 0  0.42 0.04 0  0.43 0.04 0  0.44 0.04 0  0.45 0.04 0  0.46 0.04 0  0.47 0.04 0  0.48 0.04 0  0.49 0.04 0  0.5 0.04 0  0.51 0.04 0  0.52 0.04 0  0.53 0.04 0  0.54 0.04 0  0.55 0.04 0  0.5600000000000001 0.04 0  0.57 0.04 0  0.58 0.04 0  0.59 0.04 0  0.6 0.04 0  0.61 0.04 0  0.62 0.04 0  0.63 0.04 0  0.64 0.04 0  0.65 0.04 0  0.66 0.04 0  0.67 0.04 0  0.68 0.04 0  0.6899999999999999 0.04 0  0.7 0.04 0  0.71 0.04 0  0.72 0.04 0  0.73 0.04 0  0.74 0.04 0  0.75 0.04 0  0.76 0.04 0  0.77 0.04 0  0.78 0.04 0  0.79 0.04 0  0.8 0.04 0  0.8100000000000001 0.04 0  0.82 0.04 0  0.83 0.04 0  0.84 0.04 0  0.85 0.04 0  0.86 0.04 0  0.87 0.04 0  0.88 0.04 0  0.89 0.04 0  0.9 0.04 0  0.91 0.04 0  0.92 0.04 0  0.93 0.04 0  0.9399999999999999 0.04 0  0.95 0.04 0  0.96 0.04 0  0.97 0.04 0  0.98 0.04 0  0.99 0.04 0  1 0.04 0  0 0.05 0  0.01 0.05 0  0.02 0.05 0  0.03 0.05 0  0.04 0.05 0  0.05 0.05 0  0.06 0.05 0  0.07000000000000001 0.05 0  0.08 0.05 0  0.09 0.05 0  0.1 0.05 0  0.11 0.05 0  0.12 0.05 0  0.13 0.05 0  0.14 0.05 0  0.15 0.05 0  0.16 0.05 0  0.17 0.05 0  0.18 0.05 0  0.19 0.05 0  0.2 0.05 0  0.21 0.05 0  0.22 0.05 0  0.23 0.05 0  0.24 0.05 0  0.25 0.05 0  0.26 0.05 0  0.27 0.05 0  0.28 0.05 0  0.29 0.05 0  0.3 0.05 0  0.31 0.05 0  0.32 0.05 0  0.33 0.05 0  0.34 0.05 0  0.35 0.05 0  0.36 0.05 0  0.37 0.05 0  0.38 0.05 0  0.39 0.05 0  0.4 0.05 0  0.41 0.05 0  0.42 0.05 0  0.43 0.05 0  0.44 0.05 0  0.45 0.05 0  0.46 0.05 0  0.47 0.05 0  0.48 0.05 0  0.49 0.05 0  0.5 0.05 0  0.51 0.05 0  0.52 0.05 0  0.53 0.05 0  0.54 0.05 0  0.55 0.05 0  0.5600000000000001 0.05 0  0.57 0.05 0  0.58 0.05 0  0.59 0.05 0  0.6 0.05 0  0.61 0.05 0  0.62 0.05 0  0.63 0.05 0  0.64 0.05 0  0.65 0.05 0  0.66 0.05 0  0.67 0.05 0  0.68 0.05 0  0.6899999999999999 0.05 0  0.7 0.05 0  0.71 0.05 0  0.72 0.05 0  0.73 0.05 0  0.74 0.05 0  0.75 0.05 0  0.76 0.05 0  0.77 0.05 0  0.78 0.05 0  0.79 0.05 0  0.8 0.05 0  0.8100000000000001 0.05 0  0.82 0.05 0  0.83 0.05 0  0.84 0.05 0  0.85 0.05 0  0.86 0.05 0  0.87 0.05 0  0.88 0.05 0  0.89 0.05 0  0.9 0.05 0  0.91 0.05 0  0.92 0.05 0  0.93 0.05 0  0.9399999999999999 0.05 0  0.95 0.05 0  0.96 0.05 0  0.97 0.05 0  0.98 0.05 0  0.99 0.05 0  1 0.05 0  0 0.06 0  0.01 0.06 0  0.02 0.06 0  0.03 0.06 0  0.04 0.06 0  0.05 0.06 0  0.06 0.06 0  0.07000000000000001 0.06 0  0.08 0.06 0  0.09 0.06 0  0.1 0.06 0  0.11 0.06 0  0.12 0.06 0  0.13 0.06 0  0.14 0.06 0  0.15 0.06 0  0.16 0.06 0  0.17 0.06 0  0.18 0.06 0  0.19 0.06 0  0.2 0.06 0  0.21 0.06 0  0.22 0.06 0  0.23 0.06 0  0.24 0.06 0  0.25 0.06 0  0.26 0.06 0  0.27 0.06 0  0.28 0.06 0  0.29 0.06 0  0.3 0.06 0  0.31 0.06 0  0.32 0.06 0  0.33 0.06 0  0.34 0.06 0  0.35 0.06 0  0.36 0.06 0  0.37 0.06 0  0.38 0.06 0  0.39 0.06 0  0.4 0.06 0  0.41 0.06 0  0.42 0.06 0  0.43 0.06 0  0.44 0.06 0  0.45 0.06 0  0.46 0.06 0  0.47 0.06 0  0.48 0.06 0  0.49 0.06 0  0.5 0.06 0  0.51 0.06 0  0.52 0.06 0  0.53 0.06 0  0.54 0.06 0  0.55 0.06 0  0.5600000000000001 0.06 0  0.57 0.06 0  0.58 0.06 0  0.59 0.06 0  0.6 0.06 0  0.61 0.06 0  0.62 0.06 0  0.63 0.06 0  0.64 0.06 0  0.65 0.06 0  0.66 0.06 0  0.67 0.06 0  0.68 0.06 0  0.6899999999999999 0.06 0  0.7 0.06 0  0.71 0.06 0  0.72 0.06 0  0.73 0.06 0  0.74 0.06 0  0.75 0.06 0  0.76 0.06 0  0.77 0.06 0  0.78 0.06 0  0.79 0.06 0  0.8 0.06 0  0.8100000000000001 0.06 0  0.82 0.06 0  0.83 0.06 0  0.84 0.06 0  0.85 0.06 0  0.86 0.06 0  0.87 0.06 0  0.88 0.06 0  0.89 0.06 0  0.9 0.06 0  0.91 0.06 0  0.92 0.06 0  0.93 0.06 0  0.9399999999999999 0.06 0  0.95 0.06 0  0.96 0.06 0  0.97 0.06 0  0.98 0.06 0  0.99 0.06 0  1 0.06 0  0 0.07000000000000001 0  0.01 0.07000000000000001 0  0.02 0.07000000000000001 0  0.03 0.07000000000000001 0  0.04 0.07000000000000001 0  0.05 0.07000000000000001 0  0.06 0.07000000000000001 0  0.07000000000000001 0.07000000000000001 0  0.08 0.07000000000000001 0  0.09 0.07000000000000001 0  0.1 0.07000000000000001 0  0.11 0.07000000000000001 0  0.12 0.07000000000000001 0  0.13 0.07000000000000001 0  0.14 0.07000000000000001 0  0.15 0.07000000000000001 0  0.16 0.07000000000000001 0  0.17 0.0700
[...]
<PointData  Scalars="f_17"> 
<DataArray  type="Float64"  Name="f_17"  format="ascii">0.0000000000000000e+00  5.0000000000000000e+01  5.0000000000000000e+01  5.0000000000000000e+01  5.0000000000000000e+01  5.0000000000000000e+01  5.0000000000000000e+01  5.0000000000000000e+01  5.0000000000000000e+01  5.0000000000000000e+01  5.0000000000000000e+01  5.0000000000000000e+01  5.0000000000000000e+01  5.0000000000000000e+01  5.0000000000000000e+01  5.0000000000000000e+01  5.0000000000000000e+01  5.0000000000000000e+01  5.0000000000000000e+01  5.0000000000000000e+01  5.0000000000000000e+01  5.0000000000000000e+01  5.0000000000000000e+01  5.0000000000000000e+01  5.0000000000000000e+01  5.0000000000000000e+01  5.0000000000000000e+01  5.0000000000000000e+01  5.0000000000000000e+01  5.0000000000000000e+01  5.0000000000000000e+01  5.0000000000000000e+01  5.0000000000000000e+01  5.0000000000000000e+01  5.0000000000000000e+01  5.0000000000000000e+01  5.0000000000000000e+01  5.0000000000000000e+01  5.0000000000000000e+01  5.0000000000000000e+01  5.0000000000000000e+01  5.0000000000000000e+01  5.0000000000000000e+01  5.0000000000000000e+01  5.0000000000000000e+01  5.0000000000000000e+01  5.0000000000000000e+01  5.0000000000000000e+01  5.0000000000000000e+01  5.0000000000000000e+01  5.0000000000000000e+01  5.0000000000000000e+01  5.0000000000000000e+01  5.0000000000000000e+01  5.0000000000000000e+01  5.0000000000000000e+01  5.0000000000000000e+01  5.0000000000000000e+01  5.0000000000000000e+01  5.0000000000000000e+01  5.0000000000000000e+01  5.0000000000000000e+01  5.0000000000000000e+01  5.0000000000000000e+01  5.0000000000000000e+01  5.0000000000000000e+01  5.0000000000000000e+01  5.0000000000000000e+01  5.0000000000000000e+01  5.0000000000000000e+01  5.0000000000000000e+01  5.0000000000000000e+01  5.0000000000000000e+01  5.0000000000000000e+01  5.0000000000000000e+01  5.0000000000000000e+01  5.0000000000000000e+01  5.0000000000000000e+01  5.0000000000000000e+01  5.0000000000000000e+01  5.0000000000000000e+01  5.0000000000000000e+01  5.0000000000000000e+01  5.0000000000000000e+01  5.0000000000000000e+01  5.0000000000000000e+01  5.0000000000000000e+01  5.0000000000000000e+01  5.0000000000000000e+01  5.0000000000000000e+01  5.0000000000000000e+01  5.0000000000000000e+01  5.0000000000000000e+01  5.0000000000000000e+01  5.0000000000000000e+01  5.0000000000000000e+01  5.0000000000000000e+01  5.0000000000000000e+01  5.0000000000000000e+01  5.0000000000000000e+01  0.0000000000000000e+00  0.0000000000000000e+00  2.4955832817036910e+01  3.5165364568020863e+01  3.9628102420303527e+01  4.2026542633079082e+01  4.3497292712844747e+01  4.4480393958925845e+01  4.5177589006646528e+01  4.5693482069605409e+01  4.6087486733057034e+01  4.6395778882790339e+01  4.6641621253098080e+01  4.6840644647109016e+01  4.7003737678577409e+01  4.7138717587008095e+01  4.7251341678052071e+01  4.7345943848945929e+01  4.7425848721232029e+01  4.7493648963194559e+01  4.7551395745221051e+01  4.7600732487804848e+01  4.7642990671498602e+01  4.7679259705313072e+01  4.7710438705869052e+01  4.7737275438019111e+01  4.7760395996335063e+01  4.7780327710529626e+01  4.7797517024948462e+01  4.7812343603727520e+01  4.7825131568677257e+01  4.7836158535366799e+01  4.7845662941179953e+01  4.7853850035568833e+01  4.7860896812799162e+01  4.7866956101320874e+01  4.7872159974733542e+01  4.7876622612443896e+01  4.7880442710209060e+01  4.7883705519473409e+01  4.7886484578029247e+01  4.7888843181842383e+01  4.7890835637963235e+01  4.7892508330638570e+01  4.7893900626538873e+01  4.7895045640050192e+01  4.7895970875563926e+01  4.7896698760412910e+01  4.7897247079379255e+01  4.7897629319413767e+01  4.7897854931242442e+01  4.7897929512824994e+01  4.7897854918091262e+01  4.7897629292966407e+01  4.7897247039346247e+01  4.7896698706361349e+01  4.7895970806919088e+01  4.7895045556097436e+01  4.7893900526426869e+01  4.7892508213382776e+01  4.7890835502450244e+01  4.7888843026835524e+01  4.7886484402174887e+01  4.7883705321308696e+01  4.7880442488170679e+01  4.7876622364878095e+01  4.7872159699908003e+01  4.7866955797437754e+01  4.7860896478009415e+01  4.7853849667988207e+01  4.7845662538906652e+01  4.7836158096500121e+01  4.7825131091337873e+01  4.7812343086078535e+01  4.7797516465217832e+01  4.7780327107032797e+01  4.7760395347498488e+01  4.7737274742403386e+01  4.7710437962192231e+01  4.7679258912473003e+01  4.7642989828594288e+01  4.7600731594155839e+01  4.7551394800385502e+01  4.7493647966983779e+01  4.7425847673722423e+01  4.7345942750487012e+01  4.7251340529270074e+01  4.7138716388804369e+01  4.7003736432121521e+01  4.6840643353824646e+01  4.6641619914641041e+01  4.6395777501017157e+01  4.6087485309979812e+01  4.5693480607329299e+01  4.5177587507276257e+01  4.4480392424415896e+01  4.3497291144721338e+01  4.2026541031811462e+01  3.9628100783493231e+01  3.5165362883598000e+01  2.4955831030088355e+01  0.0000000000000000e+00  0.0000000000000000e+00  1.4658213920701392e+01  2.4823826377725496e+01  3.1021010228382938e+01  3.4891013124756803e+01  3.7450139089490833e+01  3.9233920212771686e+01  4.0531345611272791e+01  4.1507193639905644e+01  4.2260817614725006e+01  4.2855173919163001e+01  4.3331893091655459e+01  4.3719521751203239e+01  4.4038251071139094e+01  4.4302747664601860e+01  4.4523913150872488e+01  4.4710014454528732e+01  4.4867431259312447e+01  4.5001163153230593e+01  4.5115181684005663e+01  4.5212679807766932e+01  4.5296251924797303e+01  4.5368026005896596e+01  4.5429762045047816e+01  4.5482926449803237e+01  4.5528748975874997e+01  4.5568266821785059e+01  4.5602359157246497e+01  4.5631774439179907e+01  4.5657152229488418e+01  4.5679040777500290e+01  4.5697911307678147e+01  4.5714169720213711e+01  4.5728166241856719e+01  4.5740203438600005e+01  4.5750542908114937e+01  4.5759410899321232e+01  4.5767003052982076e+01  4.5773488416296715e+01  4.5779012852925014e+01  4.5783701945372094e+01  4.5787663467489075e+01  4.5790989489714818e+01  4.5793758167654083e+01  4.5796035254937564e+01  4.5797875373489589e+01  4.5799323067926274e+01  4.5800413665494382e+01  4.5801173958488079e+01  4.5801622722242222e+01  4.5801771078445249e+01  4.5801622710497924e+01  4.5801173934866554e+01  4.5800413629730379e+01  4.5799323019623166e+01  4.5797875312120667e+01  4.5796035179847841e+01  4.5793758078063092e+01  4.5790989384719992e+01  4.5787663346069515e+01  4.5783701806393495e+01  4.5779012695145731e+01  4.5773488238374618e+01  4.5767002853482488e+01  4.5759410676726546e+01  4.5750542660834732e+01  4.5740203164983555e+01  4.5728165940205884e+01  4.5714169388797593e+01  4.5697910944748962e+01  4.5679040381310763e+01  4.5657151798309670e+01  4.5631773971320669e+01  4.5602358651072905e+01  4.5568266275741230e+01  4.5528748388503068e+01  4.5482925819763878e+01  4.5429761371139534e+01  4.5368025287074765e+01  4.5296251160190735e+01  4.5212678996692844e+01  4.5115180825982250e+01  4.5001162247985860e+01  4.4867430306789124e+01  4.4710013454884908e+01  4.4523912104476281e+01  4.4302746572020325e+01  4.4038249933118848e+01  4.3719520568642800e+01  4.3331891865565957e+01  4.2855172650615550e+01  4.2260816304778807e+01  4.1507192289509007e+01  4.0531344221122232e+01  3.9233918783096641e+01  3.7450137619700556e+01  3.4891011612813308e+01  3.1021008669689280e+01  2.4823824764052713e+01  1.4658212250182858e+01  0.0000000000000000e+00  0.0000000000000000e+00  1.0107885065800875e+01  1.8451707553304900e+01  2.4605465337661272e+01  2.8991854261090133e+01  3.2143035687180912e+01  3.4457654128262519e+01  3.6199916275672990e+01  3.7541267898535835e+01  3.8594336479133425e+01  3.9434852667021993e+01  4.0115072699250568e+01  4.0671976588968647e+01  4.1132354077200361e+01  4.1516029889895826e+01  4.1837957880713567e+01  4.2109612697467441e+01  4.2339935201944151e+01  4.2535988039384193e+01  4.2703418914387534e+01  4.2846793740046877e+01  4.2969840091680432e+01  4.3075627770534560e+01  4.3166704570943615e+01  4.3245199669738440e+01  4.3312903295078087e+01  4.3371328797208413e+01  4.3421761509367670e+01  4.3465297583335719e+01  4.3502875137429243e+01  4.3535299451714323e+01  4.3563263510693233e+01  4.3587364877206156e+01  4.3608119648368366e+01  4.3625974071314118e+01  4.3641314266791369e+01  4.3654474410575205e+01  4.3665743647915704e+01  4.3675371958828499e+01  4.3683575147609581e+01  4.3690539095331928e+01  4.3696423386886750e+01  4.3701364402622438e+01  4.3705477947475963e+01  4.3708861476692768e+01  4.3711595966022735e+01  4.3713747465078406e+01  4.3715368364890232e+01  4.3716498404234208e+01  4.3717165433758723e+01  4.3717385952069840e+01  4.3717165423558484e+01  4.3716498383711851e+01  4.3715368333802438e+01  4.3713747423061101e+01  4.3711595912592287e+01  4.3708861411247717e+01  4.3705477869299074e+01  4.3701364310883747e+01  4.3696423280646840e+01  4.3690538973546239e+01  4.3683575009133847e+01  4.3675371802424579e+01  4.3665743472259109e+01  4.3654474214263175e+01  4.3641314048352797e+01  4.3625973829220158e+01  4.3608119381044538e+01  4.3587364583045627e+01  4.3563263188071367e+01  4.3535299099004355e+01  4.3502874753018730e+01  4.3465297165643953e+01  4.3421761056863460e+01  4.3371328308428453e+01  4.3312902768644989e+01  4.3245199104378450e+01  4.3166703965503331e+01  4.3075627123996419e+01  4.2969839403176401e+01  4.2846793008869149e+01  4.2703418139996849e+01  4.2535987221413599e+01  4.2339934340198575e+01  4.2109611791917715e+01  4.1837956931484001e+01  4.1516028897244126e+01  4.1132353041489040e+01  4.0671975510625423e+01  4.0115071578715934e+01  3.9434851504680154e+01  3.8594335275222598e+01  3.7541266653029005e+01  3.6199914988118131e+01  3.4457652797564535e+01  3.2143034311303978e+01  2.8991852836688196e+01  2.4605463859821974e+01  1.8451706016275303e+01  1.0107883465542033e+01  0.0000000000000000e+00  0.0000000000000000e+00  7.6225926738773992e+00  1.4408245199900206e+01  1.9959497300032954e+01  2.4303189492823346e+01  2.7653225005416310e+01  3.0243008383967588e+01  3.2265003123815156e+01  3.3863445389642102e+01  3.5143039376230135e+01  3.6179418310325410e+01  3.7027604775942969e+01  3.7728123921011466e+01  3.8311253373494964e+01  3.8799948953010230e+01  3.9211865113404087e+01  3.9560763185304019e+01  3.9857504826502534e+01  4.0110762161329376e+01  4.0327532270009897e+01  4.0513514890581057e+01  4.0673393262000573e+01  4.0811045509308620e+01  4.0929705604070826e+01  4.1032087282802237e+01  4.1120480445776231e+01  4.1196826890166570e+01  4.1262780365313816e+01  4.1319754618001078e+01  4.1368962151850070e+01  4.1411445743064839e+01  4.1448104257159393e+01  4.1479713944768235e+01  4.1506946122205953e+01  4.1530381938230363e+01  4.1550524774147419e+01  4.1567810706887805e+01  4.1582617374540618e+01  4.1595271514186038e+01  4.1606055387687455e+01  4.1615212268659846e+01  4.1622951130350444e+01  4.1629450647564859e+01  4.1634862604472033e+01  4.1639314782922803e+01  4.1642913391898652e+01  4.1645745087159398e+01  4.1647878620522839e+01  4.1649366150049552e+01  4.1650244235377841e+01  4.1650534536267855e+01  4.1650244226843867e+01  4.1649366132869474e+01  4.1647878594472751e+01  4.1645745051904157e+01  4.1642913346992501e+01  4.1639314727811211e+01  4.1634862538492968e+01  4.1629450569951317e+01  4.1622951040233069e+01  4.1615212165070758e+01  4.1606055269564472e+01  4.1595271380378144e+01  4.1582617223814076e+01  4.1567810537933838e+01  4.1550524585590580e+01  4.1530381728638197e+01  4.1506945890100212e+01  4.1479713688636778e+01  4.1448103975469614e+01  4.1411445434277866e+01  4.1368961814436055e+01  4.1319754250455183e+01  4.1262779966172587e+01  4.1196826458024454e+01  4.1120479979302225e+01  4.1032086780755407e+01  4.0929705065315240e+01  4.0811044932826462e+01  4.0673392646903224e+01  4.0513514236116947e+01  4.0327531575569473e+01  4.0110761426445229e+01  3.9857504050844561e+01  3.9560762368668442e+01  3.9211864255695481e+01  3.8799948054214958e+01  3.8311252433644903e+01  3.7728122940136203e+01  3.7027603754007870e+01  3.6179417247152770e+01  3.5143038271399497e+01  3.3863444242364352e+01  3.2265001932774247e+01  3.0243007147125628e+01  2.7653223719787309e+01  2.4303188154257462e+01  1.9959495903132311e+01  1.4408243738202305e+01  7.6225911398272261e+00  0.0000000000000000e+00  0.0000000000000000e+00  6.0659656514932427e+00  1.1677607458839621e+01  1.6551651314358857e+01  2.0612054541677857e+01  2.3920346434334778e+01  2.6593535069672615e+01  2.8753721438084643e+01  3.0507268871401482e+01  3.1940044494321885e+01  3.3119123526805268e+01  3.4096277135213320e+01  3.4911417151071198e+01  3.5595451448281487e+01  3.6172493159659787e+01  3.6661520140542109e+01  3.7077607454961303e+01  3.7432841020044791e+01  3.7736997094583884e+01  3.7998050709111233e+01  3.8222559018112108e+01  3.8415952793212952e+01  3.8582760023975347e+01  3.8726778965691722e+01  3.8851213243680633e+01  3.8958778243756164e+01  3.9051785593697645e+01  3.9132210790925917e+01  3.9201747760753790e+01  3.9261853199881116e+01  3.9313782874630824e+01  3.9358621534699324e+01  3.9397307722697434e+01  3.9430654473114046e+01  3.9459366676879753e+01  3.9484055721613416e+01  3.9505251889936496e+01  3.9523414899427152e+01  3.9538942890840865e+01  3.9552180110934906e+01  3.9563423488692564e+01  3.9572928266015957e+01  3.9580912813807878e+01  3.9587562740098065e+01  3.9593034377178846e+01  3.9597457718589155e+01  3.9600938863440817e+01  3.9603562014397241e+01  3.9605391066106151e+01  3.9606470812663147e+01  3.9606827795421189e+01  3.9606470805902170e+01  3.9605391052480620e+01  3.9603561993700083e+01  3.9600938835361852e+01  3.9597457682715557e+01  3.9593034332996254e+01  3.9587562686991490e+01  3.9580912751063387e+01  3.9572928192822943e+01  3.9563423404146349e+01  3.9552180014040431e+01  3.9538942780516948e+01  3.9523414774511949e+01  3.9505251749193938e+01  3.9484055563740540e+01  3.9459366500515557e+01  3.9430654276849268e+01  3.9397307505085870e+01  3.9358621294269838e+01  3.9313782609900684e+01  3.9261852909370283e+01  3.9201747443000073e+01  3.9132210444499833e+01  3.9051785217218338e+01  3.8958777835906680e+01  3.8851212803222566e+01  3.8726778491478591e+01  3.8582759514964550e+01  3.8415952248474973e+01  3.8222558436836891e+01  3.7998050090610661e+01  3.7736996438289687e+01  3.7432840325500649e+01  3.7077606721808735e+01  3.6661519368498411e+01  3.6172492348487232e+01  3.5595450597746165e+01  3.4911416260889879e+01  3.4096276204986253e+01  3.3119122555932627e+01  3.1940043481901196e+01  3.0507267816103113e+01  2.8753720338003248e+01  2.6593533922156158e+01  2.3920345235800454e+01  2.0612053287438190e+01  1.6551649998483931e+01  1.1677606074007819e+01  6.0659641885675324e+00  0.0000000000000000e+00  0.0000000000000000e+00  4.9981908606933363e+00  9.7247179120314904e+00  1.3983964750602309e+01  1.7685951015681837e+01  2.0828519765089712e+01  2.3461125806050948e+01  2.5653743436187650e+01  2.7478042067860898e+01  2.8998634505647729e+01  3.0270286280731540e+01  3.1337999292305106e+01  3.2238213431365018e+01  3.3000274915213282e+01  3.3647814604627001e+01  3.4199918202648355e+01  3.4672073899941402e+01  3.5076922025332671e+01  3.5424841588459579e+01  3.5724407402764392e+01  3.5982746442877954e+01  3.6205816441279950e+01  3.6398624662092715e+01  3.6565400631720266e+01  3.6709733338345401e+01  3.6834680901603029e+01  3.6942858806875350e+01  3.7036511357933691e+01  3.7117569914605767e+01  3.7187700661068121e+01  3.7248344028538469e+01  3.7300747423502244e+01  3.7345992551823421e+01  3.7385018352401524e+01  3.7418640340807819e+01  3.7447566998177855e+01  3.7472413712069972e+01  3.7493714675394664e+01  3.7511933070387983e+01  3.7527469802026410e+01  3.7540670995526028e+01  3.7551834432776012e+01  3.7561215070532747e+01  3.7569029757253738e+01  3.7575461244258918e+01  3.7580661569450712e+01  3.7584754877293506e+01  3.7587839726508740e+01  3.7589990926478137e+01  3.7591260934251075e+01  3.7591680835987603e+01  3.7591260929354341e+01  3.7589990916588235e+01  3.7587839711433020e+01  3.7584754856743004e+01  3.7580661543040343e+01  3.7575461211507893e+01  3.7569029717585970e+01  3.7561215023277960e+01  3.7551834377170970e+01  3.7540670930716423e+01  3.7527469727069388e+01  3.7511932984255758e+01  3.7493714576978711e+01  3.7472413600186322e+01  3.7447566871573805e+01  3.7418640198169520e+01  3.7385018192362914e+01  3.7345992372976426e+01  3.7300747224408198e+01  3.7248343807740746e+01  3.7187700417105546e+01  3.7117569646026922e+01  3.7036511063311870e+01  3.6942858484823489e+01  3.6834680550788647e+01  3.6709732957504784e+01  3.6565400219671488e+01  3.6398624217746878e+01  3.6205815963650025e+01  3.5982745931084267e+01  3.5724406856036218e+01  3.5424841006131807e+01  3.5076921406836732e+01  3.4672073244789175e+01  3.4199917510408362e+01  3.3647813874891213e+01  3.3000274147553689e+01  3.2238212625278187e+01  3.1337998447143125e+01  3.0270285395618068e+01  2.8998633579376943e+01  2.7478041098778661e+01  2.5653742422054581e+01  2.3461124743889709e+01  2.0828518651022510e+01  1.7685949844764679e+01  1.3983963516651881e+01  9.7247166074044173e+00  4.9981894759324783e+00  0.0000000000000000e+00  0.0000000000000000e+00  4.2177437315614279e+00  8.2610229498482255e+00  1.1992882624055381e+01  1.5333281475379412e+01  1.8256721970248066e+01  2.0777093152651993e+01  2.2930478167083624e+01  2.4761847756789059e+01  2.6316834034655262e+01  2.7637528230867300e+01  2.8760828564244324e+01  2.9718179691391970e+01  3.0535969598885696e+01  3.1236174136655496e+01  3.1837042542449026e+01  3.2353731403813640e+01  3.2798853745698104e+01  3.3182938406447803e+01  3.3514807138409516e+01  3.3801881071918054e+01  3.4050428622709688e+01  3.4265765793209269e+01  3.4452418181846198e+01  3.4614252356487931e+01  3.4754582764707756e+01  3.4876259103591657e+01  3.4981738052197628e+01  3.5073142453513398e+01  3.5152310386236955e+01  3.5220836057611955e+01  3.5280104048763206e+01  3.5331318130219749e+01  3.5375525618887380e+01  3.5413638053842945e+01  3.5446448815398981e+01  3.5474648190912404e+01  3.5498836294790557e+01  3.5519534173646953e+01  3.5537193366365017e+01  3.5552204139656595e+01  3.5564902579996357e+01  3.5575576690575907e+01  3.5584471615580604e+01  3.5591794092413373e+01  3.5597716214497780e+01  3.5602378572209524e+01  3.5605892826691196e+01  3.5608343760299036e+01  3.5609790837808880e+01  3.5610269303928497e+01  3.5609790834851886e+01  3.5608343754294737e+01  3.5605892817458844e+01  3.5602378559477707e+01  3.5597716197904134e+01  3.5591794071504481e+01  3.5584471589811635e+01  3.5575576659311018e+01  3.5564902542508996e+01  3.5552204095130435e+01  3.5537193313895557e+01  3.5519534112243910e+01  3.5498836223381275e+01  3.5474648108345875e+01  3.5446448720451663e+01  3.5413637945225460e+01  3.5375525495252525e+01  3.5331317990171961e+01  3.5280103890869327e+01  3.5220835880413404e+01  3.5152310188262710e+01  3.5073142233294178e+01  3.4981737808280577e+01  3.4876258834555571e+01  3.4754582469177983e+01  3.4614252033150777e+01  3.4452417829462519e+01  3.4265765410625896e+01  3.4050428208868681e+01  3.3801880625862523e+01  3.3514806659285590e+01  3.3182937893501261e+01  3.2798853198265476e+01  3.2353730821306051e+01  3.1837041924328116e+01  3.1236173482400154e+01  3.0535968907948458e+01  2.9718178963143803e+01  2.8760827797906916e+01  2.7637527425431326e+01  2.6316833188784166e+01  2.4761846868707813e+01  2.2930477234453466e+01  2.0777092172432649e+01  1.8256720938550536e+01  1.5333280387310614e+01  1.1992881473549579e+01  8.2610217294710591e+00  4.2177424322689312e+00  0.0000000000000000e+00  0.0000000000000000e+00  3.6202263228738363e+00  7.1221561720476512e+00  1.0407575628689683e+01  1.3410628979279807e+01  1.6099609393666722e+01  1.8470984978308092e+01  2.0540366412082015e+01  2.2334020776028940e+01  2.3882535064849240e+01  2.5216780849854679e+01  2.6365691395371297e+01  2.7355251774690409e+01  2.8208212852226506e+01  2.8944193952768092e+01  2.9579967455197636e+01  3.0129807526756633e+01  3.0605840956245508e+01  3.1018370676293308e+01  3.1376160620732090e+01  3.1686679968650239e+01  3.1956309325821024e