<?xml version="1.0"?>
<VTKFile type="UnstructuredGrid"  version="0.1"  >
<UnstructuredGrid>
<Piece  NumberOfPoints="10201" NumberOfCells="20000">
<Points>
<DataArray  type="Float64"  NumberOfComponents="3"  format="ascii">0 0 0  0.01 0 0  0.02 0 0  0.03 0 0  0.04 0 0  0.05 0 0  0.06 0 0  0.07000000000000001 0 0  0.08 0 0  0.09 0 0  0.1 0 0  0.11 0 0  0.12 0 0  0.13 0 0  0.14 0 0  0.15 0 0  0.16 0 0  0.17 0 0  0.18 0 0  0.19 0 0  0.2 0 0  0.21 0 0  0.22 0 0  0.23 0 0  0.24 0 0  0.25 0 0  0.26 0 0  0.27 0 0  0.28 0 0  0.29 0 0  0.3 0 0  0.31 0 0  0.32 0 0  0.33 0 0  0.34 0 0  0.35 0 0  0.36 0 0  0.37 0 0  0.38 0 0  0.39 0 0  0.4 0 0  0.41 0 0  0.42 0 0  0.43 0 0  0.44 0 0  0.45 0 0  0.46 0 0  0.47 0 0  0.48 0 0  0.49 0 0  0.5 0 0  0.51 0 0  0.52 0 0  0.53 0 0  0.54 0 0  0.55 0 0  0.5600000000000001 0 0  0.57 0 0  0.58 0 0  0.59 0 0  0.6 0 0  0.61 0 0  0.62 0 0  0.63 0 0  0.64 0 0  0.65 0 0  0.66 0 0  0.67 0 0  0.68 0 0  0.6899999999999999 0 0  0.7 0 0  0.71 0 0  0.72 0 0  0.73 0 0  0.74 0 0  0.75 0 0  0.76 0 0  0.77 0 0  0.78 0 0  0.79 0 0  0.8 0 0  0.8100000000000001 0 0  0.82 0 0  0.83 0 0  0.84 0 0  0.85 0 0  0.86 0 0  0.87 0 0  0.88 0 0  0.89 0 0  0.9 0 0  0.91 0 0  0.92 0 0  0.93 0 0  0.9399999999999999 0 0  0.95 0 0  0.96 0 0  0.97 0 0  0.98 0 0  0.99 0 0  1 0 0  0 0.01 0  0.01 0.01 0  0.02 0.01 0  0.03 0.01 0  0.04 0.01 0  0.05 0.01 0  0.06 0.01 0  0.07000000000000001 0.01 0  0.08 0.01 0  0.09 0.01 0  0.1 0.01 0  0.11 0.01 0  0.12 0.01 0  0.13 0.01 0  0.14 0.01 0  0.15 0.01 0  0.16 0.01 0  0.17 0.01 0  0.18 0.01 0  0.19 0.01 0  0.2 0.01 0  0.21 0.01 0  0.22 0.01 0  0.23 0.01 0  0.24 0.01 0  0.25 0.01 0  0.26 0.01 0  0.27 0.01 0  0.28 0.01 0  0.29 0.01 0  0.3 0.01 0  0.31 0.01 0  0.32 0.01 0  0.33 0.01 0  0.34 0.01 0  0.35 0.01 0  0.36 0.01 0  0.37 0.01 0  0.38 0.01 0  0.39 0.01 0  0.4 0.01 0  0.41 0.01 0  0.42 0.01 0  0.43 0.01 0  0.44 0.01 0  0.45 0.01 0  0.46 0.01 0  0.47 0.01 0  0.48 0.01 0  0.49 0.01 0  0.5 0.01 0  0.51 0.01 0  0.52 0.01 0  0.53 0.01 0  0.54 0.01 0  0.55 0.01 0  0.5600000000000001 0.01 0  0.57 0.01 0  0.58 0.01 0  0.59 0.01 0  0.6 0.01 0  0.61 0.01 0  0.62 0.01 0  0.63 0.01 0  0.64 0.01 0  0.65 0.01 0  0.66 0.01 0  0.67 0.01 0  0.68 0.01 0  0.6899999999999999 0.01 0  0.7 0.01 0  0.71 0.01 0  0.72 0.01 0  0.73 0.01 0  0.74 0.01 0  0.75 0.01 0  0.76 0.01 0  0.77 0.01 0  0.78 0.01 0  0.79 0.01 0  0.8 0.01 0  0.8100000000000001 0.01 0  0.82 0.01 0  0.83 0.01 0  0.84 0.01 0  0.85 0.01 0  0.86 0.01 0  0.87 0.01 0  0.88 0.01 0  0.89 0.01 0  0.9 0.01 0  0.91 0.01 0  0.92 0.01 0  0.93 0.01 0  0.9399999999999999 0.01 0  0.95 0.01 0  0.96 0.01 0  0.97 0.01 0  0.98 0.01 0  0.99 0.01 0  1 0.01 0  0 0.02 0  0.01 0.02 0  0.02 0.02 0  0.03 0.02 0  0.04 0.02 0  0.05 0.02 0  0.06 0.02 0  0.07000000000000001 0.02 0  0.08 0.02 0  0.09 0.02 0  0.1 0.02 0  0.11 0.02 0  0.12 0.02 0  0.13 0.02 0  0.14 0.02 0  0.15 0.02 0  0.16 0.02 0  0.17 0.02 0  0.18 0.02 0  0.19 0.02 0  0.2 0.02 0  0.21 0.02 0  0.22 0.02 0  0.23 0.02 0  0.24 0.02 0  0.25 0.02 0  0.26 0.02 0  0.27 0.02 0  0.28 0.02 0  0.29 0.02 0  0.3 0.02 0  0.31 0.02 0  0.32 0.02 0  0.33 0.02 0  0.34 0.02 0  0.35 0.02 0  0.36 0.02 0  0.37 0.02 0  0.38 0.02 0  0.39 0.02 0  0.4 0.02 0  0.41 0.02 0  0.42 0.02 0  0.43 0.02 0  0.44 0.02 0  0.45 0.02 0  0.46 0.02 0  0.47 0.02 0  0.48 0.02 0  0.49 0.02 0  0.5 0.02 0  0.51 0.02 0  0.52 0.02 0  0.53 0.02 0  0.54 0.02 0  0.55 0.02 0  0.5600000000000001 0.02 0  0.57 0.02 0  0.58 0.02 0  0.59 0.02 0  0.6 0.02 0  0.61 0.02 0  0.62 0.02 0  0.63 0.02 0  0.64 0.02 0  0.65 0.02 0  0.66 0.02 0  0.67 0.02 0  0.68 0.02 0  0.6899999999999999 0.02 0  0.7 0.02 0  0.71 0.02 0  0.72 0.02 0  0.73 0.02 0  0.74 0.02 0  0.75 0.02 0  0.76 0.02 0  0.77 0.02 0  0.78 0.02 0  0.79 0.02 0  0.8 0.02 0  0.8100000000000001 0.02 0  0.82 0.02 0  0.83 0.02 0  0.84 0.02 0  0.85 0.02 0  0.86 0.02 0  0.87 0.02 0  0.88 0.02 0  0.89 0.02 0  0.9 0.02 0  0.91 0.02 0  0.92 0.02 0  0.93 0.02 0  0.9399999999999999 0.02 0  0.95 0.02 0  0.96 0.02 0  0.97 0.02 0  0.98 0.02 0  0.99 0.02 0  1 0.02 0  0 0.03 0  0.01 0.03 0  0.02 0.03 0  0.03 0.03 0  0.04 0.03 0  0.05 0.03 0  0.06 0.03 0  0.07000000000000001 0.03 0  0.08 0.03 0  0.09 0.03 0  0.1 0.03 0  0.11 0.03 0  0.12 0.03 0  0.13 0.03 0  0.14 0.03 0  0.15 0.03 0  0.16 0.03 0  0.17 0.03 0  0.18 0.03 0  0.19 0.03 0  0.2 0.03 0  0.21 0.03 0  0.22 0.03 0  0.23 0.03 0  0.24 0.03 0  0.25 0.03 0  0.26 0.03 0  0.27 0.03 0  0.28 0.03 0  0.29 0.03 0  0.3 0.03 0  0.31 0.03 0  0.32 0.03 0  0.33 0.03 0  0.34 0.03 0  0.35 0.03 0  0.36 0.03 0  0.37 0.03 0  0.38 0.03 0  0.39 0.03 0  0.4 0.03 0  0.41 0.03 0  0.42 0.03 0  0.43 0.03 0  0.44 0.03 0  0.45 0.03 0  0.46 0.03 0  0.47 0.03 0  0.48 0.03 0  0.49 0.03 0  0.5 0.03 0  0.51 0.03 0  0.52 0.03 0  0.53 0.03 0  0.54 0.03 0  0.55 0.03 0  0.5600000000000001 0.03 0  0.57 0.03 0  0.58 0.03 0  0.59 0.03 0  0.6 0.03 0  0.61 0.03 0  0.62 0.03 0  0.63 0.03 0  0.64 0.03 0  0.65 0.03 0  0.66 0.03 0  0.67 0.03 0  0.68 0.03 0  0.6899999999999999 0.03 0  0.7 0.03 0  0.71 0.03 0  0.72 0.03 0  0.73 0.03 0  0.74 0.03 0  0.75 0.03 0  0.76 0.03 0  0.77 0.03 0  0.78 0.03 0  0.79 0.03 0  0.8 0.03 0  0.8100000000000001 0.03 0  0.82 0.03 0  0.83 0.03 0  0.84 0.03 0  0.85 0.03 0  0.86 0.03 0  0.87 0.03 0  0.88 0.03 0  0.89 0.03 0  0.9 0.03 0  0.91 0.03 0  0.92 0.03 0  0.93 0.03 0  0.9399999999999999 0.03 0  0.95 0.03 0  0.96 0.03 0  0.97 0.03 0  0.98 0.03 0  0.99 0.03 0  1 0.03 0  0 0.04 0  0.01 0.04 0  0.02 0.04 0  0.03 0.04 0  0.04 0.04 0  0.05 0.04 0  0.06 0.04 0  0.07000000000000001 0.04 0  0.08 0.04 0  0.09 0.04 0  0.1 0.04 0  0.11 0.04 0  0.12 0.04 0  0.13 0.04 0  0.14 0.04 0  0.15 0.04 0  0.16 0.04 0  0.17 0.04 0  0.18 0.04 0  0.19 0.04 0  0.2 0.04 0  0.21 0.04 0  0.22 0.04 0  0.23 0.04 0  0.24 0.04 0  0.25 0.04 0  0.26 0.04 0  0.27 0.04 0  0.28 0.04 0  0.29 0.04 0  0.3 0.04 0  0.31 0.04 0  0.32 0.04 0  0.33 0.04 0  0.34 0.04 0  0.35 0.04 0  0.36 0.04 0  0.37 0.04 0  0.38 0.04 0  0.39 0.04 0  0.4 0.04 0  0.41 0.04 0  0.42 0.04 0  0.43 0.04 0  0.44 0.04 0  0.45 0.04 0  0.46 0.04 0  0.47 0.04 0  0.48 0.04 0  0.49 0.04 0  0.5 0.04 0  0.51 0.04 0  0.52 0.04 0  0.53 0.04 0  0.54 0.04 0  0.55 0.04 0  0.5600000000000001 0.04 0  0.57 0.04 0  0.58 0.04 0  0.59 0.04 0  0.6 0.04 0  0.61 0.04 0  0.62 0.04 0  0.63 0.04 0  0.64 0.04 0  0.65 0.04 0  0.66 0.04 0  0.67 0.04 0  0.68 0.04 0  0.6899999999999999 0.04 0  0.7 0.04 0  0.71 0.04 0  0.72 0.04 0  0.73 0.04 0  0.74 0.04 0  0.75 0.04 0  0.76 0.04 0  0.77 0.04 0  0.78 0.04 0  0.79 0.04 0  0.8 0.04 0  0.8100000000000001 0.04 0  0.82 0.04 0  0.83 0.04 0  0.84 0.04 0  0.85 0.04 0  0.86 0.04 0  0.87 0.04 0  0.88 0.04 0  0.89 0.04 0  0.9 0.04 0  0.91 0.04 0  0.92 0.04 0  0.93 0.04 0  0.9399999999999999 0.04 0  0.95 0.04 0  0.96 0.04 0  0.97 0.04 0  0.98 0.04 0  0.99 0.04 0  1 0.04 0  0 0.05 0  0.01 0.05 0  0.02 0.05 0  0.03 0.05 0  0.04 0.05 0  0.05 0.05 0  0.06 0.05 0  0.07000000000000001 0.05 0  0.08 0.05 0  0.09 0.05 0  0.1 0.05 0  0.11 0.05 0  0.12 0.05 0  0.13 0.05 0  0.14 0.05 0  0.15 0.05 0  0.16 0.05 0  0.17 0.05 0  0.18 0.05 0  0.19 0.05 0  0.2 0.05 0  0.21 0.05 0  0.22 0.05 0  0.23 0.05 0  0.24 0.05 0  0.25 0.05 0  0.26 0.05 0  0.27 0.05 0  0.28 0.05 0  0.29 0.05 0  0.3 0.05 0  0.31 0.05 0  0.32 0.05 0  0.33 0.05 0  0.34 0.05 0  0.35 0.05 0  0.36 0.05 0  0.37 0.05 0  0.38 0.05 0  0.39 0.05 0  0.4 0.05 0  0.41 0.05 0  0.42 0.05 0  0.43 0.05 0  0.44 0.05 0  0.45 0.05 0  0.46 0.05 0  0.47 0.05 0  0.48 0.05 0  0.49 0.05 0  0.5 0.05 0  0.51 0.05 0  0.52 0.05 0  0.53 0.05 0  0.54 0.05 0  0.55 0.05 0  0.5600000000000001 0.05 0  0.57 0.05 0  0.58 0.05 0  0.59 0.05 0  0.6 0.05 0  0.61 0.05 0  0.62 0.05 0  0.63 0.05 0  0.64 0.05 0  0.65 0.05 0  0.66 0.05 0  0.67 0.05 0  0.68 0.05 0  0.6899999999999999 0.05 0  0.7 0.05 0  0.71 0.05 0  0.72 0.05 0  0.73 0.05 0  0.74 0.05 0  0.75 0.05 0  0.76 0.05 0  0.77 0.05 0  0.78 0.05 0  0.79 0.05 0  0.8 0.05 0  0.8100000000000001 0.05 0  0.82 0.05 0  0.83 0.05 0  0.84 0.05 0  0.85 0.05 0  0.86 0.05 0  0.87 0.05 0  0.88 0.05 0  0.89 0.05 0  0.9 0.05 0  0.91 0.05 0  0.92 0.05 0  0.93 0.05 0  0.9399999999999999 0.05 0  0.95 0.05 0  0.96 0.05 0  0.97 0.05 0  0.98 0.05 0  0.99 0.05 0  1 0.05 0  0 0.06 0  0.01 0.06 0  0.02 0.06 0  0.03 0.06 0  0.04 0.06 0  0.05 0.06 0  0.06 0.06 0  0.07000000000000001 0.06 0  0.08 0.06 0  0.09 0.06 0  0.1 0.06 0  0.11 0.06 0  0.12 0.06 0  0.13 0.06 0  0.14 0.06 0  0.15 0.06 0  0.16 0.06 0  0.17 0.06 0  0.18 0.06 0  0.19 0.06 0  0.2 0.06 0  0.21 0.06 0  0.22 0.06 0  0.23 0.06 0  0.24 0.06 0  0.25 0.06 0  0.26 0.06 0  0.27 0.06 0  0.28 0.06 0  0.29 0.06 0  0.3 0.06 0  0.31 0.06 0  0.32 0.06 0  0.33 0.06 0  0.34 0.06 0  0.35 0.06 0  0.36 0.06 0  0.37 0.06 0  0.38 0.06 0  0.39 0.06 0  0.4 0.06 0  0.41 0.06 0  0.42 0.06 0  0.43 0.06 0  0.44 0.06 0  0.45 0.06 0  0.46 0.06 0  0.47 0.06 0  0.48 0.06 0  0.49 0.06 0  0.5 0.06 0  0.51 0.06 0  0.52 0.06 0  0.53 0.06 0  0.54 0.06 0  0.55 0.06 0  0.5600000000000001 0.06 0  0.57 0.06 0  0.58 0.06 0  0.59 0.06 0  0.6 0.06 0  0.61 0.06 0  0.62 0.06 0  0.63 0.06 0  0.64 0.06 0  0.65 0.06 0  0.66 0.06 0  0.67 0.06 0  0.68 0.06 0  0.6899999999999999 0.06 0  0.7 0.06 0  0.71 0.06 0  0.72 0.06 0  0.73 0.06 0  0.74 0.06 0  0.75 0.06 0  0.76 0.06 0  0.77 0.06 0  0.78 0.06 0  0.79 0.06 0  0.8 0.06 0  0.8100000000000001 0.06 0  0.82 0.06 0  0.83 0.06 0  0.84 0.06 0  0.85 0.06 0  0.86 0.06 0  0.87 0.06 0  0.88 0.06 0  0.89 0.06 0  0.9 0.06 0  0.91 0.06 0  0.92 0.06 0  0.93 0.06 0  0.9399999999999999 0.06 0  0.95 0.06 0  0.96 0.06 0  0.97 0.06 0  0.98 0.06 0  0.99 0.06 0  1 0.06 0  0 0.07000000000000001 0  0.01 0.07000000000000001 0  0.02 0.07000000000000001 0  0.03 0.07000000000000001 0  0.04 0.07000000000000001 0  0.05 0.07000000000000001 0  0.06 0.07000000000000001 0  0.07000000000000001 0.07000000000000001 0  0.08 0.07000000000000001 0  0.09 0.07000000000000001 0  0.1 0.07000000000000001 0  0.11 0.07000000000000001 0  0.12 0.07000000000000001 0  0.13 0.07000000000000001 0  0.14 0.07000000000000001 0  0.15 0.07000000000000001 0  0.16 0.07000000000000001 0  0.17 0.0700
[...]
<PointData  Scalars="f_17"> 
<DataArray  type="Float64"  Name="f_17"  format="ascii">0.0000000000000000e+00  5.0000000000000000e+01  5.0000000000000000e+01  5.0000000000000000e+01  5.0000000000000000e+01  5.0000000000000000e+01  5.0000000000000000e+01  5.0000000000000000e+01  5.0000000000000000e+01  5.0000000000000000e+01  5.0000000000000000e+01  5.0000000000000000e+01  5.0000000000000000e+01  5.0000000000000000e+01  5.0000000000000000e+01  5.0000000000000000e+01  5.0000000000000000e+01  5.0000000000000000e+01  5.0000000000000000e+01  5.0000000000000000e+01  5.0000000000000000e+01  5.0000000000000000e+01  5.0000000000000000e+01  5.0000000000000000e+01  5.0000000000000000e+01  5.0000000000000000e+01  5.0000000000000000e+01  5.0000000000000000e+01  5.0000000000000000e+01  5.0000000000000000e+01  5.0000000000000000e+01  5.0000000000000000e+01  5.0000000000000000e+01  5.0000000000000000e+01  5.0000000000000000e+01  5.0000000000000000e+01  5.0000000000000000e+01  5.0000000000000000e+01  5.0000000000000000e+01  5.0000000000000000e+01  5.0000000000000000e+01  5.0000000000000000e+01  5.0000000000000000e+01  5.0000000000000000e+01  5.0000000000000000e+01  5.0000000000000000e+01  5.0000000000000000e+01  5.0000000000000000e+01  5.0000000000000000e+01  5.0000000000000000e+01  5.0000000000000000e+01  5.0000000000000000e+01  5.0000000000000000e+01  5.0000000000000000e+01  5.0000000000000000e+01  5.0000000000000000e+01  5.0000000000000000e+01  5.0000000000000000e+01  5.0000000000000000e+01  5.0000000000000000e+01  5.0000000000000000e+01  5.0000000000000000e+01  5.0000000000000000e+01  5.0000000000000000e+01  5.0000000000000000e+01  5.0000000000000000e+01  5.0000000000000000e+01  5.0000000000000000e+01  5.0000000000000000e+01  5.0000000000000000e+01  5.0000000000000000e+01  5.0000000000000000e+01  5.0000000000000000e+01  5.0000000000000000e+01  5.0000000000000000e+01  5.0000000000000000e+01  5.0000000000000000e+01  5.0000000000000000e+01  5.0000000000000000e+01  5.0000000000000000e+01  5.0000000000000000e+01  5.0000000000000000e+01  5.0000000000000000e+01  5.0000000000000000e+01  5.0000000000000000e+01  5.0000000000000000e+01  5.0000000000000000e+01  5.0000000000000000e+01  5.0000000000000000e+01  5.0000000000000000e+01  5.0000000000000000e+01  5.0000000000000000e+01  5.0000000000000000e+01  5.0000000000000000e+01  5.0000000000000000e+01  5.0000000000000000e+01  5.0000000000000000e+01  5.0000000000000000e+01  5.0000000000000000e+01  5.0000000000000000e+01  0.0000000000000000e+00  0.0000000000000000e+00  2.4973223037612954e+01  3.5200106002626498e+01  3.9680116118372915e+01  4.2095710882215492e+01  4.3583459847785484e+01  4.4583367436407563e+01  4.5297140726270470e+01  4.5829349923537102e+01  4.6239376365769971e+01  4.6563365639991765e+01  4.6824552297102777e+01  4.7038541214387507e+01  4.7216197454042828e+01  4.7365317168837116e+01  4.7491639106458599e+01  4.7599481172342358e+01  4.7692154573598792e+01  4.7772241127219793e+01  4.7841783676838226e+01  4.7902419779112307e+01  4.7955477430659052e+01  4.8002044833856466e+01  4.8043022055822924e+01  4.8079159833417222e+01  4.8111089105869631e+01  4.8139343760369421e+01  4.8164378343004792e+01  4.8186581988875993e+01  4.8206289480601519e+01  4.8223790102748993e+01  4.8239334787899722e+01  4.8253141926363845e+01  4.8265402121471929e+01  4.8276282106037442e+01  4.8285927986243159e+01  4.8294467942152409e+01  4.8302014485968122e+01  4.8308666357703920e+01  4.8314510121397710e+01  4.8319621512155123e+01  4.8324066574263860e+01  4.8327902622692733e+01  4.8331179053992798e+01  4.8333938027570660e+01  4.8336215034227592e+01  4.8338039365527109e+01  4.8339434494806071e+01  4.8340418378344083e+01  4.8341003683247472e+01  4.8341197946904366e+01  4.8341003671355047e+01  4.8340418354533611e+01  4.8339434459026428e+01  4.8338039317702673e+01  4.8336214974258844e+01  4.8333937955335550e+01  4.8331178969348478e+01  4.8327902525477306e+01  4.8324066464298404e+01  4.8319621389246301e+01  4.8314509985340216e+01  4.8308666208283491e+01  4.8302014322964396e+01  4.8294467765342439e+01  4.8285927795404440e+01  4.8276281900951645e+01  4.8265401901928406e+01  4.8253141692163119e+01  4.8239334538857378e+01  4.8223789838699140e+01  4.8206289201400288e+01  4.8186581694405064e+01  4.8164378033174685e+01  4.8139343435122740e+01  4.8111088765183830e+01  4.8079159477307272e+01  4.8043021684343749e+01  4.8002044447104808e+01  4.7955477028775192e+01  4.7902419362281094e+01  4.7841783245289832e+01  4.7772240681230002e+01  4.7692154113488186e+01  4.7599480698475624e+01  4.7491638619242480e+01  4.7365316668717959e+01  4.7216196941503178e+01  4.7038540689941186e+01  4.6824551761289293e+01  4.6563365093368326e+01  4.6239375808900768e+01  4.5829349356978618e+01  4.5297140150548188e+01  4.4583366851976081e+01  4.3583459254947073e+01  4.2095710280919356e+01  3.9680115507599375e+01  3.5200105377982744e+01  2.4973222379386975e+01  0.0000000000000000e+00  0.0000000000000000e+00  1.4692876469585340e+01  2.4893073089600907e+01  3.1124683792951100e+01  3.5028878952061909e+01  3.7621886946150454e+01  3.9439166367846518e+01  4.0769635469157414e+01  4.1778004828626180e+01  4.2563563492665416e+01  4.3189207458752946e+01  4.3696511094746256e+01  4.4113969347773164e+01  4.4461726450650147e+01  4.4754406987793246e+01  4.5002875589028164e+01  4.5215367303283273e+01  4.5398235074830971e+01  4.5556456860074050e+01  4.5693987606113126e+01  4.5814008576692885e+01  4.5919107222552128e+01  4.6011409103379521e+01  4.6092676101043253e+01  4.6164380539752443e+01  4.6227761824044329e+01  4.6283870214949630e+01  4.6333601022510507e+01  4.6377721572991440e+01  4.6416892669203861e+01  4.6451685810959781e+01  4.6482597120108977e+01  4.6510058681352135e+01  4.6534447839428118e+01  4.6556094867209637e+01  4.6575289325159076e+01  4.6592285361730873e+01  4.6607306150459443e+01  4.6620547618219483e+01  4.6632181587280961e+01  4.6642358428988430e+01  4.6651209307450301e+01  4.6658848076265059e+01  4.6665372879083542e+01  4.6670867494996372e+01  4.6675402461792380e+01  4.6679036003643326e+01  4.6681814784402754e+01  4.6683774503211154e+01  4.6684940345265403e+01  4.6685327297283173e+01  4.6684940334222695e+01  4.6683774481101601e+01  4.6681814751178536e+01  4.6679035959233403e+01  4.6675402406103615e+01  4.6670867427914303e+01  4.6665372800474202e+01  4.6658847985976735e+01  4.6651209205315268e+01  4.6642358314825330e+01  4.6632181460897279e+01  4.6620547479414242e+01  4.6607305999025847e+01  4.6592285197459397e+01  4.6575289147840550e+01  4.6556094676638502e+01  4.6534447635405641e+01  4.6510058463689518e+01  4.6482596888630731e+01  4.6451685565507162e+01  4.6416892409637647e+01  4.6377721299194846e+01  4.6333600734392427e+01  4.6283869912446917e+01  4.6227761507124171e+01  4.6164380208414244e+01  4.6092675755320407e+01  4.6011408743340716e+01  4.5919106848301936e+01  4.5814008188371950e+01  4.5693987203898125e+01  4.5556456444176405e+01  4.5398234645495158e+01  4.5215366860784322e+01  4.5002875133668240e+01  4.4754406519896946e+01  4.4461725970558682e+01  4.4113968855836895e+01  4.3696510591314969e+01  4.3189206944163558e+01  4.2563562967224954e+01  4.1778004292588577e+01  4.0769634922688844e+01  3.9439165810969072e+01  3.7621886378643666e+01  3.5028878373276619e+01  3.1124683201467445e+01  2.4893072482935992e+01  1.4692875848005881e+01  0.0000000000000000e+00  0.0000000000000000e+00  1.0159584331308764e+01  1.8554988904749806e+01  2.4760094194318651e+01  2.9197480805068594e+01  3.2399197298983246e+01  3.4763778586785435e+01  3.6555325684004210e+01  3.7945183288458658e+01  3.9045883039381295e+01  3.9933065533538944e+01  4.0658903239995340e+01  4.1260299111186228e+01  4.1763972881619424e+01  4.2189686594016756e+01  4.2552338932235671e+01  4.2863356998939970e+01  4.3131641768875937e+01  4.3364223616242469e+01  4.3566725476077607e+01  4.3743695810494209e+01  4.3898851815922896e+01  4.4035259682156060e+01  4.4155470002617001e+01  4.4261620760963666e+01  4.4355516557775765e+01  4.4438690206531177e+01  4.4512451093804401e+01  4.4577923494795208e+01  4.4636077188398893e+01  4.4687752112708374e+01  4.4733678366956433e+01  4.4774492548963714e+01  4.4810751183761326e+01  4.4842941825501150e+01  4.4871492284513394e+01  4.4896778332762281e+01  4.4919130165677267e+01  4.4938837840422330e+01  4.4956155865765339e+01  4.4971307083644163e+01  4.4984485954939068e+01  4.4995861340103417e+01  4.5005578847854402e+01  4.5013762811086750e+01  4.5020517937780639e+01  4.5025930675340938e+01  4.5030070319074092e+01  4.5032989889013429e+01  4.5034726793762353e+01  4.5035303295198780e+01  4.5034726783578471e+01  4.5032989868622828e+01  4.5030070288431176e+01  4.5025930634378007e+01  4.5020517886408861e+01  4.5013762749197269e+01  4.5005578775319435e+01  4.4995861256778362e+01  4.4984485860664023e+01  4.4971306978246098e+01  4.4956155749060549e+01  4.4938837712218664e+01  4.4919130025777037e+01  4.4896778180964759e+01  4.4871492120617958e+01  4.4842941649309985e+01  4.4810750995082579e+01  4.4774492347614327e+01  4.4733678152765165e+01  4.4687751885518708e+01  4.4636076948071668e+01  4.4577923241211160e+01  4.4512450826866647e+01  4.4438689926167335e+01  4.4355516263939577e+01  4.4261620453636567e+01  4.4155469681809059e+01  4.4035259347906532e+01  4.3898851468300300e+01  4.3743695449595570e+01  4.3566725102027391e+01  4.3364223229190479e+01  4.3131641368994224e+01  4.2863356586419123e+01  4.2552338507279906e+01  4.2189686156837389e+01  4.1763972432427018e+01  4.1260298650180950e+01  4.0658902767354220e+01  3.9933065049400135e+01  3.9045882543823716e+01  3.7945182781474593e+01  3.6555325165461880e+01  3.4763778056376587e+01  3.2399196756149912e+01  2.9197480248916019e+01  2.4760093623586943e+01  1.8554988318168590e+01  1.0159583728653327e+01  0.0000000000000000e+00  0.0000000000000000e+00  7.6909787241005505e+00  1.4544862152941318e+01  2.0164034947579133e+01  2.4575185237959790e+01  2.7992067081384555e+01  3.0647940084343233e+01  3.2735127992533634e+01  3.4397733308319118e+01  3.5740333476104205e+01  3.6838442627227316e+01  3.7746972559138783e+01  3.8506346500660172e+01  3.9146749486876054e+01  3.9691054426642673e+01  4.0156842796696594e+01  4.0557813031424345e+01  4.0904774017666611e+01  4.1206355178612583e+01  4.1469520811956507e+01  4.1699947550210730e+01  4.1902304878133840e+01  4.2080466115299039e+01  4.2237668904875761e+01  4.2376638599672155e+01  4.2499684076530770e+01  4.2608772841882917e+01  4.2705590425125173e+01  4.2791587736440746e+01  4.2868019121650086e+01  4.2935973164405034e+01  4.2996397787968796e+01  4.3050120841719448e+01  4.3097867084455409e+01  4.3140272271699608e+01  4.3177894899186924e+01  4.3211226036508840e+01  4.3240697594055405e+01  4.3266689296080322e+01  4.3289534577907183e+01  4.3309525582270027e+01  4.3326917395778565e+01  4.3341931639438144e+01  4.3354759505468493e+01  4.3365564315147680e+01  4.3374483658148151e+01  4.3381631162109173e+01  4.3387097931445595e+01  4.3390953686188546e+01  4.3393247624632451e+01  4.3394009027431665e+01  4.3393247615311957e+01  4.3390953667525338e+01  4.3387097903395471e+01  4.3381631124606500e+01  4.3374483611106655e+01  4.3365564258461660e+01  4.3354759439013989e+01  4.3341931563074539e+01  4.3326917309350364e+01  4.3309525485608994e+01  4.3289534470834269e+01  4.3266689178408164e+01  4.3240697465590827e+01  4.3211225897055392e+01  4.3177894748547651e+01  4.3140272109679842e+01  4.3097866910865207e+01  4.3050120656376755e+01  4.2996397590701939e+01  4.2935972955055263e+01  4.2868018900073892e+01  4.2791587502512499e+01  4.2705590178738724e+01  4.2608772582953421e+01  4.2499683804996110e+01  4.2376638315493807e+01  4.2237668608039222e+01  4.2080465805813901e+01  4.1902304556033044e+01  4.1699947215549308e+01  4.1469520464809413e+01  4.1206354819072011e+01  4.0904773645837707e+01  4.0557812647420469e+01  4.0156842400633018e+01  3.9691054018628726e+01  3.9146749067005743e+01  3.8506346069000550e+01  3.7746972115715636e+01  3.6838442172007312e+01  3.5740333008972968e+01  3.4397732829053574e+01  3.2735127500767000e+01  3.0647939579523168e+01  2.7992066562726784e+01  2.4575184704415332e+01  2.0164034397861407e+01  1.4544861585664107e+01  7.6909781378516868e+00  0.0000000000000000e+00  0.0000000000000000e+00  6.1505783158788292e+00  1.1846640752721544e+01  1.6804721562304252e+01  2.0948589587863978e+01  2.4339589621976327e+01  2.7094550470946082e+01  2.9335400270916395e+01  3.1168337025740620e+01  3.2679071078038668e+01  3.3934530330357738e+01  3.4986348904888175e+01  3.5874312553059198e+01  3.6629214600174670e+01  3.7275065602203092e+01  3.7830753120637077e+01  3.8311274390971960e+01  3.8728650022323073e+01  3.9092603417710045e+01  3.9411069017500346e+01  3.9690575353210924e+01  3.9936536138321820e+01  4.0153473371582727e+01  4.0345189801900155e+01  4.0514903374618704e+01  4.0665352899607051e+01  4.0798881756921467e+01  4.0917504706217990e+01  4.1022961595083089e+01  4.1116760831425530e+01  4.1200214799426121e+01  4.1274468889221275e+01  4.1340525429301834e+01  4.1399263523190790e+01  4.1451455573677762e+01  4.1497781110939627e+01  4.1538838412307541e+01  4.1575154301775100e+01  4.1607192439573105e+01  4.1635360351066879e+01  4.1660015395977680e+01  4.1681469840552928e+01  4.1699995164600075e+01  4.1715825710551826e+01  4.1729161761649550e+01  4.1740172119904386e+01  4.1748996240933330e+01  4.1755745971452178e+01  4.1760506925638936e+01  4.1763339528367922e+01  4.1764279746117751e+01  4.1763339519911021e+01  4.1760506908703150e+01  4.1755745945993752e+01  4.1748996206887327e+01  4.1740172077185306e+01  4.1729161710152816e+01  4.1715825650154493e+01  4.1699995095162741e+01  4.1681469761921235e+01  4.1660015307984395e+01  4.1635360253533861e+01  4.1607192332313581e+01  4.1575154184596151e+01  4.1538838285012474e+01  4.1497780973330649e+01  4.1451455425558471e+01  4.1399263364368785e+01  4.1340525259591452e+01  4.1274468708445781e+01  4.1200214607420406e+01  4.1116760628038001e+01  4.1022961380177925e+01  4.0917504479676616e+01  4.0798881518644002e+01  4.0665352649513466e+01  4.0514903112649115e+01  4.0345189528015005e+01  4.0153473085762336e+01  3.9936535840564986e+01  3.9690575043533237e+01  3.9411068695931185e+01  3.9092603084289195e+01  3.8728649677095781e+01  3.8311274033983139e+01  3.7830752751924024e+01  3.7275065221786818e+01  3.6629214208049071e+01  3.5874312149178408e+01  3.4986348489151155e+01  3.3934529902589780e+01  3.2679070637969282e+01  3.1168336572977157e+01  2.9335399804913262e+01  2.7094549990970911e+01  2.4339589127077080e+01  2.0948589076846414e+01  1.6804721033729219e+01  1.1846640204903251e+01  6.1505777467846992e+00  0.0000000000000000e+00  0.0000000000000000e+00  5.0984650758222356e+00  9.9250387458024996e+00  1.4283877711366229e+01  1.8084778340597595e+01  2.1325365131890887e+01  2.4054880525395522e+01  2.6343094049351240e+01  2.8261479258197767e+01  2.9874463217455510e+01  3.1236636926140996e+01  3.2392839915766729e+01  3.3379362692371657e+01  3.4225415743178807e+01  3.4954508375391562e+01  3.5585619283902062e+01  3.6134144412913592e+01  3.6612646672296208e+01  3.7031442399827391e+01  3.7399058263650097e+01  3.7722587266764599e+01  3.8007966867679038e+01  3.8260197165547666e+01  3.8483512940972510e+01  3.8681520076689004e+01  3.8857304372155099e+01  3.9013518859445469e+01  3.9152454287153198e+01  3.9276096351762838e+01  3.9386172434493368e+01  3.9484189979224368e+01  3.9571468173774619e+01  3.9649164235193069e+01  3.9718295322117235e+01  3.9779756883048250e+01  3.9834338083218711e+01  3.9882734823137653e+01  3.9925560760280277e+01  3.9963356665284024e+01  3.9996598380515444e+01  4.0025703598269970e+01  4.0051037635309939e+01  4.0072918347752150e+01  4.0091620303802237e+01  4.0107378310177339e+01  4.0120390370243527e+01  4.0130820137109296e+01  4.0138798912510701e+01  4.0144427231793706e+01  4.0147776066210000e+01  4.0148887665757357e+01  4.0147776058613175e+01  4.0144427216577895e+01  4.0138798889631722e+01  4.0130820106501631e+01  4.0120390331820907e+01  4.0107378263833908e+01  4.0091620249413744e+01  4.0072918285177430e+01  4.0051037564392686e+01  4.0025703518840459e+01  3.9996598292392555e+01  3.9963356568277774e+01  3.9925560654193788e+01  3.9882734707769664e+01  3.9834337958366149e+01  3.9779756748508724e+01  3.9718295177691409e+01  3.9649164080687285e+01  3.9571468009003091e+01  3.9484189804011550e+01  3.9386172248676054e+01  3.9276096155191652e+01  3.9152454079694444e+01  3.9013518640982205e+01  3.8857304142587672e+01  3.8681519835935504e+01  3.8483512688968403e+01  3.8260196902244928e+01  3.8007966593044578e+01  3.7722586980777834e+01  3.7399057966299750e+01  3.7031442091107216e+01  3.6612646352199718e+01  3.6134144081427422e+01  3.5585618940998110e+01  3.4954508021017475e+01  3.4225415377246605e+01  3.3379362314744377e+01  3.2392839526242696e+01  3.1236636524435305e+01  2.9874462803178631e+01  2.8261478830830868e+01  2.6343093608219032e+01  2.4054880069636955e+01  2.1325364660430775e+01  1.8084777852120865e+01  1.4283877204292381e+01  9.9250382182431078e+00  5.0984645254868184e+00  0.0000000000000000e+00  0.0000000000000000e+00  4.3330160547065937e+00  8.4913059944841773e+00  1.2337654192123212e+01  1.5791762833385482e+01  1.8827883260001691e+01  2.1459660502223429e+01  2.3722942415648994e+01  2.5662474688263352e+01  2.7323675998027607e+01  2.8748437010209649e+01  2.9973469348678762e+01  3.1030045985043454e+01  3.1944398903129020e+01  3.2738364231850142e+01  3.3430068193846431e+01  3.4034561316374941e+01  3.4564367595078778e+01  3.5029943778248068e+01  3.5440056214774877e+01  3.5802086913486029e+01  3.6122280904492847e+01  3.6405945865017458e+01  3.6657613337002239e+01  3.6881169206597171e+01  3.7079959632818266e+01  3.7256877362949481e+01  3.7414432352698007e+01  3.7554809792625022e+01  3.7679917995411316e+01  3.7791428088784663e+01  3.7890807058341096e+01  3.7979345369790650e+01  3.8058180152682198e+01  3.8128314732650765e+01  3.8190635145141869e+01  3.8245924141417674e+01  3.8294873100467967e+01  3.8338092182830032e+01  3.8376119000071398e+01  3.8409426023542416e+01  3.8438426915425531e+01  3.8463481932099178e+01  3.8484902522842390e+01  3.8502955224694297e+01  3.8517864935877988e+01  3.8529817634820475e+01  3.8538962598822344e+01  3.8545414165344610e+01  3.8549253069267088e+01  3.8550527380982011e+01  3.8549253062523782e+01  3.8545414151835161e+01  3.8538962578501355e+01  3.8529817607620558e+01  3.8517864901710396e+01  3.8502955183450034e+01  3.8484902474393358e+01  3.8463481876299895e+01  3.8438426852114567e+01  3.8409425952544261e+01  3.8376118921198582e+01  3.8338092095885301e+01  3.8294873005246600e+01  3.8245924037709841e+01  3.8190635032735059e+01  3.8128314611332385e+01  3.8058180022241899e+01  3.7979345230022730e+01  3.7890806909046880e+01  3.7791427929774734e+01  3.7679917826507385e+01  3.7554809613661611e+01  3.7414432163523813e+01  3.7256877163428591e+01  3.7079959422830470e+01  3.6881168986038155e+01  3.6657613105783078e+01  3.6405945623063538e+01  3.6122280651741882e+01  3.5802086649885432e+01  3.5440055940278228e+01  3.5029943492810290e+01  3.4564367298650637e+01  3.4034561008895913e+01  3.3430067875236418e+01  3.2738363901999598e+01  3.1944398561887301e+01  3.1030045632205141e+01  2.9973468983968147e+01  2.8748436633262681e+01  2.7323675608371520e+01  2.5662474285293914e+01  2.3722941998605751e+01  2.1459660070163348e+01  1.8827882811772387e+01  1.5791762367597169e+01  1.2337653707116610e+01  8.4913054882862049e+00  4.3330155249649129e+00  0.0000000000000000e+00  0.0000000000000000e+00  3.7497425039073340e+00  7.3808946961108957e+00  1.0794950123432749e+01  1.3925765006698644e+01  1.6741350521924545e+01  1.9237900761550524e+01  2.1430762181426402e+01  2.3345949123858190e+01  2.5013808885482881e+01  2.6464987782903695e+01  2.7728209503849524e+01  2.8829266278442123e+01  2.9790733728565787e+01  3.0632074210477423e+01  3.1369921885208505e+01  3.2018431732882938e+01  3.2589630472151690e+01  3.3093739980298288e+01  3.3539461867871282e+01  3.3934221269400950e+01  3.4284372412767766e