<?xml version="1.0"?>
<VTKFile type="UnstructuredGrid"  version="0.1"  >
<UnstructuredGrid>
<Piece  NumberOfPoints="10201" NumberOfCells="20000">
<Points>
<DataArray  type="Float64"  NumberOfComponents="3"  format="ascii">0 0 0  0.01 0 0  0.02 0 0  0.03 0 0  0.04 0 0  0.05 0 0  0.06 0 0  0.07000000000000001 0 0  0.08 0 0  0.09 0 0  0.1 0 0  0.11 0 0  0.12 0 0  0.13 0 0  0.14 0 0  0.15 0 0  0.16 0 0  0.17 0 0  0.18 0 0  0.19 0 0  0.2 0 0  0.21 0 0  0.22 0 0  0.23 0 0  0.24 0 0  0.25 0 0  0.26 0 0  0.27 0 0  0.28 0 0  0.29 0 0  0.3 0 0  0.31 0 0  0.32 0 0  0.33 0 0  0.34 0 0  0.35 0 0  0.36 0 0  0.37 0 0  0.38 0 0  0.39 0 0  0.4 0 0  0.41 0 0  0.42 0 0  0.43 0 0  0.44 0 0  0.45 0 0  0.46 0 0  0.47 0 0  0.48 0 0  0.49 0 0  0.5 0 0  0.51 0 0  0.52 0 0  0.53 0 0  0.54 0 0  0.55 0 0  0.5600000000000001 0 0  0.57 0 0  0.58 0 0  0.59 0 0  0.6 0 0  0.61 0 0  0.62 0 0  0.63 0 0  0.64 0 0  0.65 0 0  0.66 0 0  0.67 0 0  0.68 0 0  0.6899999999999999 0 0  0.7 0 0  0.71 0 0  0.72 0 0  0.73 0 0  0.74 0 0  0.75 0 0  0.76 0 0  0.77 0 0  0.78 0 0  0.79 0 0  0.8 0 0  0.8100000000000001 0 0  0.82 0 0  0.83 0 0  0.84 0 0  0.85 0 0  0.86 0 0  0.87 0 0  0.88 0 0  0.89 0 0  0.9 0 0  0.91 0 0  0.92 0 0  0.93 0 0  0.9399999999999999 0 0  0.95 0 0  0.96 0 0  0.97 0 0  0.98 0 0  0.99 0 0  1 0 0  0 0.01 0  0.01 0.01 0  0.02 0.01 0  0.03 0.01 0  0.04 0.01 0  0.05 0.01 0  0.06 0.01 0  0.07000000000000001 0.01 0  0.08 0.01 0  0.09 0.01 0  0.1 0.01 0  0.11 0.01 0  0.12 0.01 0  0.13 0.01 0  0.14 0.01 0  0.15 0.01 0  0.16 0.01 0  0.17 0.01 0  0.18 0.01 0  0.19 0.01 0  0.2 0.01 0  0.21 0.01 0  0.22 0.01 0  0.23 0.01 0  0.24 0.01 0  0.25 0.01 0  0.26 0.01 0  0.27 0.01 0  0.28 0.01 0  0.29 0.01 0  0.3 0.01 0  0.31 0.01 0  0.32 0.01 0  0.33 0.01 0  0.34 0.01 0  0.35 0.01 0  0.36 0.01 0  0.37 0.01 0  0.38 0.01 0  0.39 0.01 0  0.4 0.01 0  0.41 0.01 0  0.42 0.01 0  0.43 0.01 0  0.44 0.01 0  0.45 0.01 0  0.46 0.01 0  0.47 0.01 0  0.48 0.01 0  0.49 0.01 0  0.5 0.01 0  0.51 0.01 0  0.52 0.01 0  0.53 0.01 0  0.54 0.01 0  0.55 0.01 0  0.5600000000000001 0.01 0  0.57 0.01 0  0.58 0.01 0  0.59 0.01 0  0.6 0.01 0  0.61 0.01 0  0.62 0.01 0  0.63 0.01 0  0.64 0.01 0  0.65 0.01 0  0.66 0.01 0  0.67 0.01 0  0.68 0.01 0  0.6899999999999999 0.01 0  0.7 0.01 0  0.71 0.01 0  0.72 0.01 0  0.73 0.01 0  0.74 0.01 0  0.75 0.01 0  0.76 0.01 0  0.77 0.01 0  0.78 0.01 0  0.79 0.01 0  0.8 0.01 0  0.8100000000000001 0.01 0  0.82 0.01 0  0.83 0.01 0  0.84 0.01 0  0.85 0.01 0  0.86 0.01 0  0.87 0.01 0  0.88 0.01 0  0.89 0.01 0  0.9 0.01 0  0.91 0.01 0  0.92 0.01 0  0.93 0.01 0  0.9399999999999999 0.01 0  0.95 0.01 0  0.96 0.01 0  0.97 0.01 0  0.98 0.01 0  0.99 0.01 0  1 0.01 0  0 0.02 0  0.01 0.02 0  0.02 0.02 0  0.03 0.02 0  0.04 0.02 0  0.05 0.02 0  0.06 0.02 0  0.07000000000000001 0.02 0  0.08 0.02 0  0.09 0.02 0  0.1 0.02 0  0.11 0.02 0  0.12 0.02 0  0.13 0.02 0  0.14 0.02 0  0.15 0.02 0  0.16 0.02 0  0.17 0.02 0  0.18 0.02 0  0.19 0.02 0  0.2 0.02 0  0.21 0.02 0  0.22 0.02 0  0.23 0.02 0  0.24 0.02 0  0.25 0.02 0  0.26 0.02 0  0.27 0.02 0  0.28 0.02 0  0.29 0.02 0  0.3 0.02 0  0.31 0.02 0  0.32 0.02 0  0.33 0.02 0  0.34 0.02 0  0.35 0.02 0  0.36 0.02 0  0.37 0.02 0  0.38 0.02 0  0.39 0.02 0  0.4 0.02 0  0.41 0.02 0  0.42 0.02 0  0.43 0.02 0  0.44 0.02 0  0.45 0.02 0  0.46 0.02 0  0.47 0.02 0  0.48 0.02 0  0.49 0.02 0  0.5 0.02 0  0.51 0.02 0  0.52 0.02 0  0.53 0.02 0  0.54 0.02 0  0.55 0.02 0  0.5600000000000001 0.02 0  0.57 0.02 0  0.58 0.02 0  0.59 0.02 0  0.6 0.02 0  0.61 0.02 0  0.62 0.02 0  0.63 0.02 0  0.64 0.02 0  0.65 0.02 0  0.66 0.02 0  0.67 0.02 0  0.68 0.02 0  0.6899999999999999 0.02 0  0.7 0.02 0  0.71 0.02 0  0.72 0.02 0  0.73 0.02 0  0.74 0.02 0  0.75 0.02 0  0.76 0.02 0  0.77 0.02 0  0.78 0.02 0  0.79 0.02 0  0.8 0.02 0  0.8100000000000001 0.02 0  0.82 0.02 0  0.83 0.02 0  0.84 0.02 0  0.85 0.02 0  0.86 0.02 0  0.87 0.02 0  0.88 0.02 0  0.89 0.02 0  0.9 0.02 0  0.91 0.02 0  0.92 0.02 0  0.93 0.02 0  0.9399999999999999 0.02 0  0.95 0.02 0  0.96 0.02 0  0.97 0.02 0  0.98 0.02 0  0.99 0.02 0  1 0.02 0  0 0.03 0  0.01 0.03 0  0.02 0.03 0  0.03 0.03 0  0.04 0.03 0  0.05 0.03 0  0.06 0.03 0  0.07000000000000001 0.03 0  0.08 0.03 0  0.09 0.03 0  0.1 0.03 0  0.11 0.03 0  0.12 0.03 0  0.13 0.03 0  0.14 0.03 0  0.15 0.03 0  0.16 0.03 0  0.17 0.03 0  0.18 0.03 0  0.19 0.03 0  0.2 0.03 0  0.21 0.03 0  0.22 0.03 0  0.23 0.03 0  0.24 0.03 0  0.25 0.03 0  0.26 0.03 0  0.27 0.03 0  0.28 0.03 0  0.29 0.03 0  0.3 0.03 0  0.31 0.03 0  0.32 0.03 0  0.33 0.03 0  0.34 0.03 0  0.35 0.03 0  0.36 0.03 0  0.37 0.03 0  0.38 0.03 0  0.39 0.03 0  0.4 0.03 0  0.41 0.03 0  0.42 0.03 0  0.43 0.03 0  0.44 0.03 0  0.45 0.03 0  0.46 0.03 0  0.47 0.03 0  0.48 0.03 0  0.49 0.03 0  0.5 0.03 0  0.51 0.03 0  0.52 0.03 0  0.53 0.03 0  0.54 0.03 0  0.55 0.03 0  0.5600000000000001 0.03 0  0.57 0.03 0  0.58 0.03 0  0.59 0.03 0  0.6 0.03 0  0.61 0.03 0  0.62 0.03 0  0.63 0.03 0  0.64 0.03 0  0.65 0.03 0  0.66 0.03 0  0.67 0.03 0  0.68 0.03 0  0.6899999999999999 0.03 0  0.7 0.03 0  0.71 0.03 0  0.72 0.03 0  0.73 0.03 0  0.74 0.03 0  0.75 0.03 0  0.76 0.03 0  0.77 0.03 0  0.78 0.03 0  0.79 0.03 0  0.8 0.03 0  0.8100000000000001 0.03 0  0.82 0.03 0  0.83 0.03 0  0.84 0.03 0  0.85 0.03 0  0.86 0.03 0  0.87 0.03 0  0.88 0.03 0  0.89 0.03 0  0.9 0.03 0  0.91 0.03 0  0.92 0.03 0  0.93 0.03 0  0.9399999999999999 0.03 0  0.95 0.03 0  0.96 0.03 0  0.97 0.03 0  0.98 0.03 0  0.99 0.03 0  1 0.03 0  0 0.04 0  0.01 0.04 0  0.02 0.04 0  0.03 0.04 0  0.04 0.04 0  0.05 0.04 0  0.06 0.04 0  0.07000000000000001 0.04 0  0.08 0.04 0  0.09 0.04 0  0.1 0.04 0  0.11 0.04 0  0.12 0.04 0  0.13 0.04 0  0.14 0.04 0  0.15 0.04 0  0.16 0.04 0  0.17 0.04 0  0.18 0.04 0  0.19 0.04 0  0.2 0.04 0  0.21 0.04 0  0.22 0.04 0  0.23 0.04 0  0.24 0.04 0  0.25 0.04 0  0.26 0.04 0  0.27 0.04 0  0.28 0.04 0  0.29 0.04 0  0.3 0.04 0  0.31 0.04 0  0.32 0.04 0  0.33 0.04 0  0.34 0.04 0  0.35 0.04 0  0.36 0.04 0  0.37 0.04 0  0.38 0.04 0  0.39 0.04 0  0.4 0.04 0  0.41 0.04 0  0.42 0.04 0  0.43 0.04 0  0.44 0.04 0  0.45 0.04 0  0.46 0.04 0  0.47 0.04 0  0.48 0.04 0  0.49 0.04 0  0.5 0.04 0  0.51 0.04 0  0.52 0.04 0  0.53 0.04 0  0.54 0.04 0  0.55 0.04 0  0.5600000000000001 0.04 0  0.57 0.04 0  0.58 0.04 0  0.59 0.04 0  0.6 0.04 0  0.61 0.04 0  0.62 0.04 0  0.63 0.04 0  0.64 0.04 0  0.65 0.04 0  0.66 0.04 0  0.67 0.04 0  0.68 0.04 0  0.6899999999999999 0.04 0  0.7 0.04 0  0.71 0.04 0  0.72 0.04 0  0.73 0.04 0  0.74 0.04 0  0.75 0.04 0  0.76 0.04 0  0.77 0.04 0  0.78 0.04 0  0.79 0.04 0  0.8 0.04 0  0.8100000000000001 0.04 0  0.82 0.04 0  0.83 0.04 0  0.84 0.04 0  0.85 0.04 0  0.86 0.04 0  0.87 0.04 0  0.88 0.04 0  0.89 0.04 0  0.9 0.04 0  0.91 0.04 0  0.92 0.04 0  0.93 0.04 0  0.9399999999999999 0.04 0  0.95 0.04 0  0.96 0.04 0  0.97 0.04 0  0.98 0.04 0  0.99 0.04 0  1 0.04 0  0 0.05 0  0.01 0.05 0  0.02 0.05 0  0.03 0.05 0  0.04 0.05 0  0.05 0.05 0  0.06 0.05 0  0.07000000000000001 0.05 0  0.08 0.05 0  0.09 0.05 0  0.1 0.05 0  0.11 0.05 0  0.12 0.05 0  0.13 0.05 0  0.14 0.05 0  0.15 0.05 0  0.16 0.05 0  0.17 0.05 0  0.18 0.05 0  0.19 0.05 0  0.2 0.05 0  0.21 0.05 0  0.22 0.05 0  0.23 0.05 0  0.24 0.05 0  0.25 0.05 0  0.26 0.05 0  0.27 0.05 0  0.28 0.05 0  0.29 0.05 0  0.3 0.05 0  0.31 0.05 0  0.32 0.05 0  0.33 0.05 0  0.34 0.05 0  0.35 0.05 0  0.36 0.05 0  0.37 0.05 0  0.38 0.05 0  0.39 0.05 0  0.4 0.05 0  0.41 0.05 0  0.42 0.05 0  0.43 0.05 0  0.44 0.05 0  0.45 0.05 0  0.46 0.05 0  0.47 0.05 0  0.48 0.05 0  0.49 0.05 0  0.5 0.05 0  0.51 0.05 0  0.52 0.05 0  0.53 0.05 0  0.54 0.05 0  0.55 0.05 0  0.5600000000000001 0.05 0  0.57 0.05 0  0.58 0.05 0  0.59 0.05 0  0.6 0.05 0  0.61 0.05 0  0.62 0.05 0  0.63 0.05 0  0.64 0.05 0  0.65 0.05 0  0.66 0.05 0  0.67 0.05 0  0.68 0.05 0  0.6899999999999999 0.05 0  0.7 0.05 0  0.71 0.05 0  0.72 0.05 0  0.73 0.05 0  0.74 0.05 0  0.75 0.05 0  0.76 0.05 0  0.77 0.05 0  0.78 0.05 0  0.79 0.05 0  0.8 0.05 0  0.8100000000000001 0.05 0  0.82 0.05 0  0.83 0.05 0  0.84 0.05 0  0.85 0.05 0  0.86 0.05 0  0.87 0.05 0  0.88 0.05 0  0.89 0.05 0  0.9 0.05 0  0.91 0.05 0  0.92 0.05 0  0.93 0.05 0  0.9399999999999999 0.05 0  0.95 0.05 0  0.96 0.05 0  0.97 0.05 0  0.98 0.05 0  0.99 0.05 0  1 0.05 0  0 0.06 0  0.01 0.06 0  0.02 0.06 0  0.03 0.06 0  0.04 0.06 0  0.05 0.06 0  0.06 0.06 0  0.07000000000000001 0.06 0  0.08 0.06 0  0.09 0.06 0  0.1 0.06 0  0.11 0.06 0  0.12 0.06 0  0.13 0.06 0  0.14 0.06 0  0.15 0.06 0  0.16 0.06 0  0.17 0.06 0  0.18 0.06 0  0.19 0.06 0  0.2 0.06 0  0.21 0.06 0  0.22 0.06 0  0.23 0.06 0  0.24 0.06 0  0.25 0.06 0  0.26 0.06 0  0.27 0.06 0  0.28 0.06 0  0.29 0.06 0  0.3 0.06 0  0.31 0.06 0  0.32 0.06 0  0.33 0.06 0  0.34 0.06 0  0.35 0.06 0  0.36 0.06 0  0.37 0.06 0  0.38 0.06 0  0.39 0.06 0  0.4 0.06 0  0.41 0.06 0  0.42 0.06 0  0.43 0.06 0  0.44 0.06 0  0.45 0.06 0  0.46 0.06 0  0.47 0.06 0  0.48 0.06 0  0.49 0.06 0  0.5 0.06 0  0.51 0.06 0  0.52 0.06 0  0.53 0.06 0  0.54 0.06 0  0.55 0.06 0  0.5600000000000001 0.06 0  0.57 0.06 0  0.58 0.06 0  0.59 0.06 0  0.6 0.06 0  0.61 0.06 0  0.62 0.06 0  0.63 0.06 0  0.64 0.06 0  0.65 0.06 0  0.66 0.06 0  0.67 0.06 0  0.68 0.06 0  0.6899999999999999 0.06 0  0.7 0.06 0  0.71 0.06 0  0.72 0.06 0  0.73 0.06 0  0.74 0.06 0  0.75 0.06 0  0.76 0.06 0  0.77 0.06 0  0.78 0.06 0  0.79 0.06 0  0.8 0.06 0  0.8100000000000001 0.06 0  0.82 0.06 0  0.83 0.06 0  0.84 0.06 0  0.85 0.06 0  0.86 0.06 0  0.87 0.06 0  0.88 0.06 0  0.89 0.06 0  0.9 0.06 0  0.91 0.06 0  0.92 0.06 0  0.93 0.06 0  0.9399999999999999 0.06 0  0.95 0.06 0  0.96 0.06 0  0.97 0.06 0  0.98 0.06 0  0.99 0.06 0  1 0.06 0  0 0.07000000000000001 0  0.01 0.07000000000000001 0  0.02 0.07000000000000001 0  0.03 0.07000000000000001 0  0.04 0.07000000000000001 0  0.05 0.07000000000000001 0  0.06 0.07000000000000001 0  0.07000000000000001 0.07000000000000001 0  0.08 0.07000000000000001 0  0.09 0.07000000000000001 0  0.1 0.07000000000000001 0  0.11 0.07000000000000001 0  0.12 0.07000000000000001 0  0.13 0.07000000000000001 0  0.14 0.07000000000000001 0  0.15 0.07000000000000001 0  0.16 0.07000000000000001 0  0.17 0.0700
[...]
<PointData  Scalars="f_17"> 
<DataArray  type="Float64"  Name="f_17"  format="ascii">0.0000000000000000e+00  5.0000000000000000e+01  5.0000000000000000e+01  5.0000000000000000e+01  5.0000000000000000e+01  5.0000000000000000e+01  5.0000000000000000e+01  5.0000000000000000e+01  5.0000000000000000e+01  5.0000000000000000e+01  5.0000000000000000e+01  5.0000000000000000e+01  5.0000000000000000e+01  5.0000000000000000e+01  5.0000000000000000e+01  5.0000000000000000e+01  5.0000000000000000e+01  5.0000000000000000e+01  5.0000000000000000e+01  5.0000000000000000e+01  5.0000000000000000e+01  5.0000000000000000e+01  5.0000000000000000e+01  5.0000000000000000e+01  5.0000000000000000e+01  5.0000000000000000e+01  5.0000000000000000e+01  5.0000000000000000e+01  5.0000000000000000e+01  5.0000000000000000e+01  5.0000000000000000e+01  5.0000000000000000e+01  5.0000000000000000e+01  5.0000000000000000e+01  5.0000000000000000e+01  5.0000000000000000e+01  5.0000000000000000e+01  5.0000000000000000e+01  5.0000000000000000e+01  5.0000000000000000e+01  5.0000000000000000e+01  5.0000000000000000e+01  5.0000000000000000e+01  5.0000000000000000e+01  5.0000000000000000e+01  5.0000000000000000e+01  5.0000000000000000e+01  5.0000000000000000e+01  5.0000000000000000e+01  5.0000000000000000e+01  5.0000000000000000e+01  5.0000000000000000e+01  5.0000000000000000e+01  5.0000000000000000e+01  5.0000000000000000e+01  5.0000000000000000e+01  5.0000000000000000e+01  5.0000000000000000e+01  5.0000000000000000e+01  5.0000000000000000e+01  5.0000000000000000e+01  5.0000000000000000e+01  5.0000000000000000e+01  5.0000000000000000e+01  5.0000000000000000e+01  5.0000000000000000e+01  5.0000000000000000e+01  5.0000000000000000e+01  5.0000000000000000e+01  5.0000000000000000e+01  5.0000000000000000e+01  5.0000000000000000e+01  5.0000000000000000e+01  5.0000000000000000e+01  5.0000000000000000e+01  5.0000000000000000e+01  5.0000000000000000e+01  5.0000000000000000e+01  5.0000000000000000e+01  5.0000000000000000e+01  5.0000000000000000e+01  5.0000000000000000e+01  5.0000000000000000e+01  5.0000000000000000e+01  5.0000000000000000e+01  5.0000000000000000e+01  5.0000000000000000e+01  5.0000000000000000e+01  5.0000000000000000e+01  5.0000000000000000e+01  5.0000000000000000e+01  5.0000000000000000e+01  5.0000000000000000e+01  5.0000000000000000e+01  5.0000000000000000e+01  5.0000000000000000e+01  5.0000000000000000e+01  5.0000000000000000e+01  5.0000000000000000e+01  5.0000000000000000e+01  0.0000000000000000e+00  0.0000000000000000e+00  2.4963188158406496e+01  3.5180056396434139e+01  3.9650092591219689e+01  4.2055774318298020e+01  4.3533690842772486e+01  4.4523865808647855e+01  4.5228024914669703e+01  4.5750756279157585e+01  4.6151458344794726e+01  4.6466292906561740e+01  4.6718509745356982e+01  4.6923727919746199e+01  4.7092825564348452e+01  4.7233610746401482e+01  4.7351832932353865e+01  4.7451819524413111e+01  4.7536889989672993e+01  4.7609633164854415e+01  4.7672097680662766e+01  4.7725925666437774e+01  4.7772448505510802e+01  4.7812756638980836e+01  4.7847751271519918e+01  4.7878183231282215e+01  4.7904682564697112e+01  4.7927781350597016e+01  4.7947931485172546e+01  4.7965518690653909e+01  4.7980873656014637e+01  4.7994280976315231e+01  4.8005986385500414e+01  4.8016202653803553e+01  4.8025114430859482e+01  4.8032882249341149e+01  4.8039645854645556e+01  4.8045526989160038e+01  4.8050631731617663e+01  4.8055052470654047e+01  4.8058869575200859e+01  4.8062152811571409e+01  4.8064962547097466e+01  4.8067350772307528e+01  4.8069361967386875e+01  4.8071033833659264e+01  4.8072397906793114e+01  4.8073480065141133e+01  4.8074300943905108e+01  4.8074876263546336e+01  4.8075217078924638e+01  4.8075329953970872e+01  4.8075217065200732e+01  4.8074876236007398e+01  4.8074300902369629e+01  4.8073480009338724e+01  4.8072397836366044e+01  4.8071033748165242e+01  4.8069361866302629e+01  4.8067350655032605e+01  4.8064962412958913e+01  4.8062152659829231e+01  4.8058869405054111e+01  4.8055052281247853e+01  4.8050631522050431e+01  4.8045526758491697e+01  4.8039645601906713e+01  4.8032881973542459e+01  4.8025114131001686e+01  4.8016202328888120e+01  4.8005986034540875e+01  4.7994280598348368e+01  4.7980873250112452e+01  4.7965518255935535e+01  4.7947931020816256e+01  4.7927780855852120e+01  4.7904682038895679e+01  4.7878182673850304e+01  4.7847750681988110e+01  4.7812756016994577e+01  4.7772447850838937e+01  4.7725924978980359e+01  4.7672096960457786e+01  4.7609632412082348e+01  4.7536889204659808e+01  4.7451818707631467e+01  4.7351832084421581e+01  4.7233609868077529e+01  4.7092824656526176e+01  4.6923726983442926e+01  4.6718508781699434e+01  4.6466291916766522e+01  4.6151457330141241e+01  4.5750755240950774e+01  4.5228023854184173e+01  4.4523864727036042e+01  4.3533689740888647e+01  4.2055773196286914e+01  3.9650091447299495e+01  3.5180055222249592e+01  2.4963186916187912e+01  0.0000000000000000e+00  0.0000000000000000e+00  1.4672867515682144e+01  2.4853095695130438e+01  3.1064819298661153e+01  3.4949248745289943e+01  3.7522651717287019e+01  3.9320525133809220e+01  4.0631824372561134e+01  4.1621295725381017e+01  4.2388262342998111e+01  4.2995652538562254e+01  4.3485071045881384e+01  4.3885041087244559e+01  4.4215732959933895e+01  4.4491795004254918e+01  4.4724113222065377e+01  4.4920941598071579e+01  4.5088649546552368e+01  4.5232229021228385e+01  4.5355646508968121e+01  4.5462092392139674e+01  4.5554160875619608e+01  4.5633981984445384e+01  4.5703319870392754e+01  4.5763647041598290e+01  4.5816201124469018e+01  4.5862028776488039e+01  4.5902020026288177e+01  4.5936935397497088e+01  4.5967427532933627e+01  4.5994058584346902e+01  4.6017314310369279e+01  4.6037615592153834e+01  4.6055327905650088e+01  4.6070769163499463e+01  4.6084216245552703e+01  4.6095910466256925e+01  4.6106062173430701e+01  4.6114854631809223e+01  4.6122447313000350e+01  4.6128978688811507e+01  4.6134568605579432e+01  4.6139320301879835e+01  4.6143322119865246e+01  4.6146648950759996e+01  4.6149363447178317e+01  4.6151517028514220e+01  4.6153150700344874e+01  4.6154295704350432e+01  4.6154974011463992e+01  4.6155198667677240e+01  4.6154973998992496e+01  4.6154295679322928e+01  4.6153150662593184e+01  4.6151516977787452e+01  4.6149363383144880e+01  4.6146648873009795e+01  4.6143322027913243e+01  4.6139320195169425e+01  4.6134568483486710e+01  4.6128978550650480e+01  4.6122447158028699e+01  4.6114854459234550e+01  4.6106061982417287e+01  4.6095910255933667e+01  4.6084216015020935e+01  4.6070768911842180e+01  4.6055327631940841e+01  4.6037615295466566e+01  4.6017313989788562e+01  4.5994058238978361e+01  4.5967427161914237e+01  4.5936935000006024e+01  4.5902019601557640e+01  4.5862028323813377e+01  4.5816200643218870e+01  4.5763646531223912e+01  4.5703319330436642e+01  4.5633981414549488e+01  4.5554160275531359e+01  4.5462091761717254e+01  4.5355645848184103e+01  4.5232228330171218e+01  4.5088648825425551e+01  4.4920940847190586e+01  4.4724112441851645e+01  4.4491794195226156e+01  4.4215732122690703e+01  4.3885040222452069e+01  4.3485070154245449e+01  4.2995651620797602e+01  4.2388261399785591e+01  4.1621294757309606e+01  4.0631823380043414e+01  3.9320524116950970e+01  3.7522650675667578e+01  3.4949247677563285e+01  3.1064818201838136e+01  2.4853094563916990e+01  1.4672866349534427e+01  0.0000000000000000e+00  0.0000000000000000e+00  1.0129722906947961e+01  1.8495326661466567e+01  2.4670752511961862e+01  2.9078640821343043e+01  3.2251098802060447e+01  3.4586718557882769e+01  3.6349656505439661e+01  3.7711310636161016e+01  3.8784263482144716e+01  3.9644203864217879e+01  4.0343349566359080e+01  4.0918645736283032e+01  4.1396851005218871e+01  4.1797762867991153e+01  4.2136311903599108e+01  4.2423953474686414e+01  4.2669613136754371e+01  4.2880342155187435e+01  4.3061780689204490e+01  4.3218490812390250e+01  4.3354199804453252e+01  4.3471980523193061e+01  4.3574386954028512e+01  4.3663557359906562e+01  4.3741293692872965e+01  4.3809123393911776e+01  4.3868347973295144e+01  4.3920081559813944e+01  4.3965281760351786e+01  4.4004774567971623e+01  4.4039274621863775e+01  4.4069401805650713e+01  4.4095694937264383e+01  4.4118623130191160e+01  4.4138595275782258e+01  4.4155967997882165e+01  4.4171052355929767e+01  4.4184119514948463e+01  4.4195405556118637e+01  4.4205115566735238e+01  4.4213427120931442e+01  4.4220493240851944e+01  4.4226444910655161e+01  4.4231393201819436e+01  4.4235431056957964e+01  4.4238634770120434e+01  4.4241065193921891e+01  4.4242768697425156e+01  4.4243777893231517e+01  4.4244112147465771e+01  4.4243777882088509e+01  4.4242768675060240e+01  4.4241065160177783e+01  4.4238634724762761e+01  4.4235430999676730e+01  4.4231393132231446e+01  4.4226444828306704e+01  4.4220493145222477e+01  4.4213427011437446e+01  4.4205115442734908e+01  4.4195405416917147e+01  4.4184119359803788e+01  4.4171052184059192e+01  4.4155967808469157e+01  4.4138595067984276e+01  4.4118622903147589e+01  4.4095694690105148e+01  4.4069401537505243e+01  4.4039274331870175e+01  4.4004774255286272e+01  4.3965281424158910e+01  4.3920081199335200e+01  4.3868347587799057e+01  4.3809122982722997e+01  4.3741293255380661e+01  4.3663556895572505e+01  4.3574386462394067e+01  4.3471980003884973e+01  4.3354199257188469e+01  4.3218490236978383e+01  4.3061780085549088e+01  4.2880341523284706e+01  4.2669612476688947e+01  4.2423952786624817e+01  4.2136311187779491e+01  4.1797762124708825e+01  4.1396850234807303e+01  4.0918644939089489e+01  4.0343348742712628e+01  3.9644203014388751e+01  3.8784262606291584e+01  3.7711309734261576e+01  3.6349655577196884e+01  3.4586717602596146e+01  3.2251097818449203e+01  2.9078639807329388e+01  2.4670751464547187e+01  1.8495325577307216e+01  1.0129721784224678e+01  0.0000000000000000e+00  0.0000000000000000e+00  7.6514456453237498e+00  1.4465876315695077e+01  2.0045757020762931e+01  2.4417854990666086e+01  2.7796001917862284e+01  3.0413533115276458e+01  3.2462845663416680e+01  3.4088112610208775e+01  3.5393978768263949e+01  3.6456022104999796e+01  3.7329214403721906e+01  3.8054034750285204e+01  3.8660719671161580e+01  3.9172189007609838e+01  3.9606066461067392e+01  3.9976087879384345e+01  4.0293094693270270e+01  4.0565743986455075e+01  4.0801022863664905e+01  4.1004625982750035e+01  4.1181236183923076e+01  4.1334735621736591e+01  4.1468366438131554e+01  4.1584854364574234e+01  4.1686504781109633e+01  4.1775278091697068e+01  4.1852849408931370e+01  4.1920656221148477e+01  4.1979936770862786e+01  4.2031761191250169e+01  4.2077056949397857e+01  4.2116629778058702e+01  4.2151181004739882e+01  4.2181321982256357e+01  4.2207586170070272e+01  4.2230439297746948e+01  4.2250287951252474e+01  4.2267486852740696e+01  4.2282345049902659e+01  4.2295131188157228e+01  4.2306078005180119e+01  4.2315386160418100e+01  4.2323227490741871e+01  4.2329747766054787e+01  4.2335069004571977e+01  4.2339291395905796e+01  4.2342494870473573e+01  4.2344740345645313e+01  4.2346070672120675e+01  4.2346511297971020e+01  4.2346070662371787e+01  4.2344740326073072e+01  4.2342494840929547e+01  4.2339291356168630e+01  4.2335068954348799e+01  4.2329747704983589e+01  4.2323227418393842e+01  4.2315386076300882e+01  4.2306077908741528e+01  4.2295131078789602e+01  4.2282344926947509e+01  4.2267486715494321e+01  4.2250287798971826e+01  4.2230439129656233e+01  4.2207585985367857e+01  4.2181321780122452e+01  4.2151180784344241e+01  4.2116629538569157e+01  4.2077056689988858e+01  4.2031760911111405e+01  4.1979936469208091e+01  4.1920655897224698e+01  4.1852849062026671e+01  4.1775277721149187e+01  4.1686504386313437e+01  4.1584853944988453e+01  4.1468365993284415e+01  4.1334735151230333e+01  4.1181235687436839e+01  4.1004625460040877e+01  4.0801022314566701e+01  4.0565743410874944e+01  4.0293094091181992e+01  3.9976087250818665e+01  3.9606065806098442e+01  3.9172188326336808e+01  3.8660718963685447e+01  3.8054034016679530e+01  3.7329213643995701e+01  3.6456021319051239e+01  3.5393977955822642e+01  3.4088111770763156e+01  3.2462844796123207e+01  3.0413532218848424e+01  2.7796000990443137e+01  2.4417854029717827e+01  2.0045756023055166e+01  1.4465875277489987e+01  7.6514445624245528e+00  0.0000000000000000e+00  0.0000000000000000e+00  6.1016117465000388e+00  1.1748807155150022e+01  1.6658219906201577e+01  2.0753716799541852e+01  2.4096738770570202e+01  2.6804208380486646e+01  2.8998144583970223e+01  3.0784832749949427e+01  3.2250066652114697e+01  3.3460853250806835e+01  3.4468900958862399e+01  3.5314064706233928e+01  3.6027201591364047e+01  3.6632380298547254e+01  3.7148540688601805e+01  3.7590726339096946e+01  3.7970998171649605e+01  3.8299113855136241e+01  3.8583036085986542e+01  3.8829315730830494e+01  3.9043383055678234e+01  3.9229771014148469e+01  3.9392287940439680e+01  3.9534152263108439e+01  3.9658098476023881e+01  3.9766461178014424e+01  3.9861242242970533e+01  3.9944164911087313e+01  4.0016717661887640e+01  4.0080190044063812e+01  4.0135702127956321e+01  4.0184228865439003e+01  4.0226620354753244e+01  4.0263618789771975e+01  4.0295872706476167e+01  4.0323949011130104e+01  4.0348343175260965e+01  4.0369487905066684e+01  4.0387760532101794e+01  4.0403489324116613e+01  4.0416958876825142e+01  4.0428414716925033e+01  4.0438067222187605e+01  4.0446094944574327e+01  4.0452647406108845e+01  4.0457847423846552e+01  4.0461793009122047e+01  4.0464558876820931e+01  4.0466197592320235e+01  4.0466740376644466e+01  4.0466197584020996e+01  4.0464558860151314e+01  4.0461792983940164e+01  4.0457847389940746e+01  4.0452647363199041e+01  4.0446094892314065e+01  4.0438067160166263e+01  4.0428414644670710e+01  4.0416958793808128e+01  4.0403489229753447e+01  4.0387760425759375e+01  4.0369487786067474e+01  4.0348343042888679e+01  4.0323948864635675e+01  4.0295872545084208e+01  4.0263618612687992e+01  4.0226620161170850e+01  4.0184228654547972e+01  4.0135701898950394e+01  4.0080189796149135e+01  4.0016717394290851e+01  3.9944164623063820e+01  3.9861241933812167e+01  3.9766460847057139e+01  3.9658098122654394e+01  3.9534151886770175e+01  3.9392287540637511e+01  3.9229770590452176e+01  3.9043382607724141e+01  3.8829315258321195e+01  3.8583035588688340e+01  3.8299113332873752e+01  3.7970997624297297e+01  3.7590725766567189e+01  3.7148540090828710e+01  3.6632379675465913e+01  3.6027200942884143e+01  3.5314064032207227e+01  3.4468900259042712e+01  3.3460852524801176e+01  3.2250065899324255e+01  3.0784831969498612e+01  2.8998143774622868e+01  2.6804207540551076e+01  2.4096737897799979e+01  2.0753715891049101e+01  1.6658218958400575e+01  1.1748806163696841e+01  6.1016107060430445e+00  0.0000000000000000e+00  0.0000000000000000e+00  5.0403580789510141e+00  9.8089429065024749e+00  1.4110029084548756e+01  1.7853529196291184e+01  2.1037181803880138e+01  2.3710340578956153e+01  2.5942882798485474e+01  2.7806385669518889e+01  2.9365375244078241e+01  3.0674536320523007e+01  3.1778796575342135e+01  3.2714528595959948e+01  3.3511018539495858e+01  3.4191844687503725e+01  3.4776047795135455e+01  3.5279078800555901e+01  3.5713548455424110e+01  3.6089813766784808e+01  3.6416434943131875e+01  3.6700531504176844e+01  3.6948060565514169e+01  3.7164035242997066e+01  3.7352696963978225e+01  3.7517652205189073e+01  3.7661981666487307e+01  3.7788327982825692e+01  3.7898966635919088e+01  3.7995863639754241e+01  3.8080722752600430e+01  3.8155024345848965e+01  3.8220057586779930e+01  3.8276947230921678e+01  3.8326676042288547e+01  3.8370103645839791e+01  3.8407982450630030e+01  3.8440971152849905e+01  3.8469646226676787e+01  3.8494511731093077e+01  3.8516007697677843e+01  3.8534517314112136e+01  3.8550373077905959e+01  3.8563862062469454e+01  3.8575230411421174e+01  3.8584687155632864e+01  3.8592407429931271e+01  3.8598535151799545e+01  3.8603185212200501e+01  3.8606445218269073e+01  3.8608376818668951e+01  3.8609016634538200e+01  3.8608376811865156e+01  3.8606445204592518e+01  3.8603185191513745e+01  3.8598535123897456e+01  3.8592407394542221e+01  3.8584687112420461e+01  3.8575230359986449e+01  3.8563862002353503e+01  3.8550373008592942e+01  3.8534517235032951e+01  3.8516007608214082e+01  3.8494511630581961e+01  3.8469646114416165e+01  3.8440971028103895e+01  3.8407982312635369e+01  3.8370103493812366e+01  3.8326675875430475e+01  3.8276947048428745e+01  3.8220057387849209e+01  3.8155024129686929e+01  3.8080722518430598e+01  3.7995863386824979e+01  3.7898966363511242e+01  3.7788327690259543e+01  3.7661981353128944e+01  3.7517651870455808e+01  3.7352696607342885e+01  3.7164034863990707e+01  3.6948060163727177e+01  3.6700531079257686e+01  3.6416434494783680e+01  3.6089813294758649e+01  3.5713547959509690e+01  3.5279078280567823e+01  3.4776047250895608e+01  3.4191844118818914e+01  3.3511017946129719e+01  3.2714527977598856e+01  3.1778795931553852e+01  3.0674535650707757e+01  2.9365374547410585e+01  2.7806384944880381e+01  2.5942882044388369e+01  2.3710339793459280e+01  2.1037180984501887e+01  1.7853528339923386e+01  1.4110028187367694e+01  9.8089419638471469e+00  5.0403570851062938e+00  0.0000000000000000e+00  0.0000000000000000e+00  4.2661135991173271e+00  8.3576371356707906e+00  1.2137490640153462e+01  1.5525510068180882e+01  1.8496078055761654e+01  2.1062967668347667e+01  2.3262150789122618e+01  2.5138492420234989e+01  2.6737525184459432e+01  2.8101247722907772e+01  2.9266473128645895e+01  3.0264568864861378e+01  3.1121854028926013e+01  3.1860244158302425e+01  3.2497936927586593e+01  3.3050046184132398e+01  3.3529151012873818e+01  3.3945754997034463e+01  3.4308663116120464e+01  3.4625287926256966e+01  3.4901897110134584e+01  3.5143813354983131e+01  3.5355575881254751e+01  3.5541071286997564e+01  3.5703639889702892e+01  3.5846162497391752e+01  3.5971131520939871e+01  3.6080709523043069e+01  3.6176777652239274e+01  3.6260975900731772e+01  3.6334736724296974e+01  3.6399313248059926e+01  3.6455803034701717e+01  3.6505168196957918e+01  3.6548252482519580e+01  3.6585795837669025e+01  3.6618446859188829e+01  3.6646773466858583e+01  3.6671272067000722e+01  3.6692375427777947e+01  3.6710459446737495e+01  3.6725848958443166e+01  3.6738822703372549e+01  3.6749617557345758e+01  3.6758432102619615e+01  3.6765429606642769e+01  3.6770740461700839e+01  3.6774464127775644e+01  3.6776670611485862e+01  3.6777401505618677e+01  3.6776670606214054e+01  3.6774464117164264e+01  3.6770740445614798e+01  3.6765429584880295e+01  3.6758432074913358e+01  3.6749617523364392e+01  3.6738822662722505e+01  3.6725848910671274e+01  3.6710459391333551e+01  3.6692375364178098e+01  3.6671271994591216e+01  3.6646773384980179e+01  3.6618446767141613e+01  3.6585795734717756e+01  3.6548252367899586e+01  3.6505168069881513e+01  3.6455802894364957e+01  3.6399313093649866e+01  3.6334736554999061e+01  3.6260975715737665e+01  3.6176777450754663e+01  3.6080709304295112e+01  3.5971131284184779e+01  3.5846162241921697e+01  3.5703639614852300e+01  3.5541070992148342e+01  3.5355575565840446e+01  3.5143813018491606e+01  3.4901896752108705e+01  3.4625287546293180e+01  3.4308662713864905e+01  3.3945754572175922e+01  3.3529150565133520e+01  3.3050045713249958e+01  3.2497936433301682e+01  3.1860243640331593e+01  3.1121853486934235e+01  3.0264568298427509e+01  2.9266472537221947e+01  2.8101247105770749e+01  2.6737524540656075e+01  2.5138491748518735e+01  2.3262150087883771e+01  2.1062966935537613e+01  1.8496077288812995e+01  1.5525509263923723e+01  1.2137489794722802e+01  8.3576362443933334e+00  4.2661126563626874e+00  0.0000000000000000e+00  0.0000000000000000e+00  3.6744379693161635e+00  7.2304387614615013e+00  1.0569648524011685e+01  1.3626074000241882e+01  1.6367874104012685e+01  1.8791386999696709e+01  2.0912098707170358e+01  2.2756157830914812e+01  2.4354039890033338e+01  2.5736512709350329e+01  2.6932414165690986e+01  2.7967642829286049e+01  2.8864872362624020e+01  2.9643654495146116e+01  3.0320703810500152e+01  3.0910246563550810e+01  3.1424371488346637e+01  3.1873353191557342e+01  3.2265936783211288e+01  3.2609581803342060e+01  3.2910668003321739e