<?xml version="1.0"?>
<VTKFile type="UnstructuredGrid"  version="0.1"  >
<UnstructuredGrid>
<Piece  NumberOfPoints="10201" NumberOfCells="20000">
<Points>
<DataArray  type="Float64"  NumberOfComponents="3"  format="ascii">0 0 0  0.01 0 0  0.02 0 0  0.03 0 0  0.04 0 0  0.05 0 0  0.06 0 0  0.07000000000000001 0 0  0.08 0 0  0.09 0 0  0.1 0 0  0.11 0 0  0.12 0 0  0.13 0 0  0.14 0 0  0.15 0 0  0.16 0 0  0.17 0 0  0.18 0 0  0.19 0 0  0.2 0 0  0.21 0 0  0.22 0 0  0.23 0 0  0.24 0 0  0.25 0 0  0.26 0 0  0.27 0 0  0.28 0 0  0.29 0 0  0.3 0 0  0.31 0 0  0.32 0 0  0.33 0 0  0.34 0 0  0.35 0 0  0.36 0 0  0.37 0 0  0.38 0 0  0.39 0 0  0.4 0 0  0.41 0 0  0.42 0 0  0.43 0 0  0.44 0 0  0.45 0 0  0.46 0 0  0.47 0 0  0.48 0 0  0.49 0 0  0.5 0 0  0.51 0 0  0.52 0 0  0.53 0 0  0.54 0 0  0.55 0 0  0.5600000000000001 0 0  0.57 0 0  0.58 0 0  0.59 0 0  0.6 0 0  0.61 0 0  0.62 0 0  0.63 0 0  0.64 0 0  0.65 0 0  0.66 0 0  0.67 0 0  0.68 0 0  0.6899999999999999 0 0  0.7 0 0  0.71 0 0  0.72 0 0  0.73 0 0  0.74 0 0  0.75 0 0  0.76 0 0  0.77 0 0  0.78 0 0  0.79 0 0  0.8 0 0  0.8100000000000001 0 0  0.82 0 0  0.83 0 0  0.84 0 0  0.85 0 0  0.86 0 0  0.87 0 0  0.88 0 0  0.89 0 0  0.9 0 0  0.91 0 0  0.92 0 0  0.93 0 0  0.9399999999999999 0 0  0.95 0 0  0.96 0 0  0.97 0 0  0.98 0 0  0.99 0 0  1 0 0  0 0.01 0  0.01 0.01 0  0.02 0.01 0  0.03 0.01 0  0.04 0.01 0  0.05 0.01 0  0.06 0.01 0  0.07000000000000001 0.01 0  0.08 0.01 0  0.09 0.01 0  0.1 0.01 0  0.11 0.01 0  0.12 0.01 0  0.13 0.01 0  0.14 0.01 0  0.15 0.01 0  0.16 0.01 0  0.17 0.01 0  0.18 0.01 0  0.19 0.01 0  0.2 0.01 0  0.21 0.01 0  0.22 0.01 0  0.23 0.01 0  0.24 0.01 0  0.25 0.01 0  0.26 0.01 0  0.27 0.01 0  0.28 0.01 0  0.29 0.01 0  0.3 0.01 0  0.31 0.01 0  0.32 0.01 0  0.33 0.01 0  0.34 0.01 0  0.35 0.01 0  0.36 0.01 0  0.37 0.01 0  0.38 0.01 0  0.39 0.01 0  0.4 0.01 0  0.41 0.01 0  0.42 0.01 0  0.43 0.01 0  0.44 0.01 0  0.45 0.01 0  0.46 0.01 0  0.47 0.01 0  0.48 0.01 0  0.49 0.01 0  0.5 0.01 0  0.51 0.01 0  0.52 0.01 0  0.53 0.01 0  0.54 0.01 0  0.55 0.01 0  0.5600000000000001 0.01 0  0.57 0.01 0  0.58 0.01 0  0.59 0.01 0  0.6 0.01 0  0.61 0.01 0  0.62 0.01 0  0.63 0.01 0  0.64 0.01 0  0.65 0.01 0  0.66 0.01 0  0.67 0.01 0  0.68 0.01 0  0.6899999999999999 0.01 0  0.7 0.01 0  0.71 0.01 0  0.72 0.01 0  0.73 0.01 0  0.74 0.01 0  0.75 0.01 0  0.76 0.01 0  0.77 0.01 0  0.78 0.01 0  0.79 0.01 0  0.8 0.01 0  0.8100000000000001 0.01 0  0.82 0.01 0  0.83 0.01 0  0.84 0.01 0  0.85 0.01 0  0.86 0.01 0  0.87 0.01 0  0.88 0.01 0  0.89 0.01 0  0.9 0.01 0  0.91 0.01 0  0.92 0.01 0  0.93 0.01 0  0.9399999999999999 0.01 0  0.95 0.01 0  0.96 0.01 0  0.97 0.01 0  0.98 0.01 0  0.99 0.01 0  1 0.01 0  0 0.02 0  0.01 0.02 0  0.02 0.02 0  0.03 0.02 0  0.04 0.02 0  0.05 0.02 0  0.06 0.02 0  0.07000000000000001 0.02 0  0.08 0.02 0  0.09 0.02 0  0.1 0.02 0  0.11 0.02 0  0.12 0.02 0  0.13 0.02 0  0.14 0.02 0  0.15 0.02 0  0.16 0.02 0  0.17 0.02 0  0.18 0.02 0  0.19 0.02 0  0.2 0.02 0  0.21 0.02 0  0.22 0.02 0  0.23 0.02 0  0.24 0.02 0  0.25 0.02 0  0.26 0.02 0  0.27 0.02 0  0.28 0.02 0  0.29 0.02 0  0.3 0.02 0  0.31 0.02 0  0.32 0.02 0  0.33 0.02 0  0.34 0.02 0  0.35 0.02 0  0.36 0.02 0  0.37 0.02 0  0.38 0.02 0  0.39 0.02 0  0.4 0.02 0  0.41 0.02 0  0.42 0.02 0  0.43 0.02 0  0.44 0.02 0  0.45 0.02 0  0.46 0.02 0  0.47 0.02 0  0.48 0.02 0  0.49 0.02 0  0.5 0.02 0  0.51 0.02 0  0.52 0.02 0  0.53 0.02 0  0.54 0.02 0  0.55 0.02 0  0.5600000000000001 0.02 0  0.57 0.02 0  0.58 0.02 0  0.59 0.02 0  0.6 0.02 0  0.61 0.02 0  0.62 0.02 0  0.63 0.02 0  0.64 0.02 0  0.65 0.02 0  0.66 0.02 0  0.67 0.02 0  0.68 0.02 0  0.6899999999999999 0.02 0  0.7 0.02 0  0.71 0.02 0  0.72 0.02 0  0.73 0.02 0  0.74 0.02 0  0.75 0.02 0  0.76 0.02 0  0.77 0.02 0  0.78 0.02 0  0.79 0.02 0  0.8 0.02 0  0.8100000000000001 0.02 0  0.82 0.02 0  0.83 0.02 0  0.84 0.02 0  0.85 0.02 0  0.86 0.02 0  0.87 0.02 0  0.88 0.02 0  0.89 0.02 0  0.9 0.02 0  0.91 0.02 0  0.92 0.02 0  0.93 0.02 0  0.9399999999999999 0.02 0  0.95 0.02 0  0.96 0.02 0  0.97 0.02 0  0.98 0.02 0  0.99 0.02 0  1 0.02 0  0 0.03 0  0.01 0.03 0  0.02 0.03 0  0.03 0.03 0  0.04 0.03 0  0.05 0.03 0  0.06 0.03 0  0.07000000000000001 0.03 0  0.08 0.03 0  0.09 0.03 0  0.1 0.03 0  0.11 0.03 0  0.12 0.03 0  0.13 0.03 0  0.14 0.03 0  0.15 0.03 0  0.16 0.03 0  0.17 0.03 0  0.18 0.03 0  0.19 0.03 0  0.2 0.03 0  0.21 0.03 0  0.22 0.03 0  0.23 0.03 0  0.24 0.03 0  0.25 0.03 0  0.26 0.03 0  0.27 0.03 0  0.28 0.03 0  0.29 0.03 0  0.3 0.03 0  0.31 0.03 0  0.32 0.03 0  0.33 0.03 0  0.34 0.03 0  0.35 0.03 0  0.36 0.03 0  0.37 0.03 0  0.38 0.03 0  0.39 0.03 0  0.4 0.03 0  0.41 0.03 0  0.42 0.03 0  0.43 0.03 0  0.44 0.03 0  0.45 0.03 0  0.46 0.03 0  0.47 0.03 0  0.48 0.03 0  0.49 0.03 0  0.5 0.03 0  0.51 0.03 0  0.52 0.03 0  0.53 0.03 0  0.54 0.03 0  0.55 0.03 0  0.5600000000000001 0.03 0  0.57 0.03 0  0.58 0.03 0  0.59 0.03 0  0.6 0.03 0  0.61 0.03 0  0.62 0.03 0  0.63 0.03 0  0.64 0.03 0  0.65 0.03 0  0.66 0.03 0  0.67 0.03 0  0.68 0.03 0  0.6899999999999999 0.03 0  0.7 0.03 0  0.71 0.03 0  0.72 0.03 0  0.73 0.03 0  0.74 0.03 0  0.75 0.03 0  0.76 0.03 0  0.77 0.03 0  0.78 0.03 0  0.79 0.03 0  0.8 0.03 0  0.8100000000000001 0.03 0  0.82 0.03 0  0.83 0.03 0  0.84 0.03 0  0.85 0.03 0  0.86 0.03 0  0.87 0.03 0  0.88 0.03 0  0.89 0.03 0  0.9 0.03 0  0.91 0.03 0  0.92 0.03 0  0.93 0.03 0  0.9399999999999999 0.03 0  0.95 0.03 0  0.96 0.03 0  0.97 0.03 0  0.98 0.03 0  0.99 0.03 0  1 0.03 0  0 0.04 0  0.01 0.04 0  0.02 0.04 0  0.03 0.04 0  0.04 0.04 0  0.05 0.04 0  0.06 0.04 0  0.07000000000000001 0.04 0  0.08 0.04 0  0.09 0.04 0  0.1 0.04 0  0.11 0.04 0  0.12 0.04 0  0.13 0.04 0  0.14 0.04 0  0.15 0.04 0  0.16 0.04 0  0.17 0.04 0  0.18 0.04 0  0.19 0.04 0  0.2 0.04 0  0.21 0.04 0  0.22 0.04 0  0.23 0.04 0  0.24 0.04 0  0.25 0.04 0  0.26 0.04 0  0.27 0.04 0  0.28 0.04 0  0.29 0.04 0  0.3 0.04 0  0.31 0.04 0  0.32 0.04 0  0.33 0.04 0  0.34 0.04 0  0.35 0.04 0  0.36 0.04 0  0.37 0.04 0  0.38 0.04 0  0.39 0.04 0  0.4 0.04 0  0.41 0.04 0  0.42 0.04 0  0.43 0.04 0  0.44 0.04 0  0.45 0.04 0  0.46 0.04 0  0.47 0.04 0  0.48 0.04 0  0.49 0.04 0  0.5 0.04 0  0.51 0.04 0  0.52 0.04 0  0.53 0.04 0  0.54 0.04 0  0.55 0.04 0  0.5600000000000001 0.04 0  0.57 0.04 0  0.58 0.04 0  0.59 0.04 0  0.6 0.04 0  0.61 0.04 0  0.62 0.04 0  0.63 0.04 0  0.64 0.04 0  0.65 0.04 0  0.66 0.04 0  0.67 0.04 0  0.68 0.04 0  0.6899999999999999 0.04 0  0.7 0.04 0  0.71 0.04 0  0.72 0.04 0  0.73 0.04 0  0.74 0.04 0  0.75 0.04 0  0.76 0.04 0  0.77 0.04 0  0.78 0.04 0  0.79 0.04 0  0.8 0.04 0  0.8100000000000001 0.04 0  0.82 0.04 0  0.83 0.04 0  0.84 0.04 0  0.85 0.04 0  0.86 0.04 0  0.87 0.04 0  0.88 0.04 0  0.89 0.04 0  0.9 0.04 0  0.91 0.04 0  0.92 0.04 0  0.93 0.04 0  0.9399999999999999 0.04 0  0.95 0.04 0  0.96 0.04 0  0.97 0.04 0  0.98 0.04 0  0.99 0.04 0  1 0.04 0  0 0.05 0  0.01 0.05 0  0.02 0.05 0  0.03 0.05 0  0.04 0.05 0  0.05 0.05 0  0.06 0.05 0  0.07000000000000001 0.05 0  0.08 0.05 0  0.09 0.05 0  0.1 0.05 0  0.11 0.05 0  0.12 0.05 0  0.13 0.05 0  0.14 0.05 0  0.15 0.05 0  0.16 0.05 0  0.17 0.05 0  0.18 0.05 0  0.19 0.05 0  0.2 0.05 0  0.21 0.05 0  0.22 0.05 0  0.23 0.05 0  0.24 0.05 0  0.25 0.05 0  0.26 0.05 0  0.27 0.05 0  0.28 0.05 0  0.29 0.05 0  0.3 0.05 0  0.31 0.05 0  0.32 0.05 0  0.33 0.05 0  0.34 0.05 0  0.35 0.05 0  0.36 0.05 0  0.37 0.05 0  0.38 0.05 0  0.39 0.05 0  0.4 0.05 0  0.41 0.05 0  0.42 0.05 0  0.43 0.05 0  0.44 0.05 0  0.45 0.05 0  0.46 0.05 0  0.47 0.05 0  0.48 0.05 0  0.49 0.05 0  0.5 0.05 0  0.51 0.05 0  0.52 0.05 0  0.53 0.05 0  0.54 0.05 0  0.55 0.05 0  0.5600000000000001 0.05 0  0.57 0.05 0  0.58 0.05 0  0.59 0.05 0  0.6 0.05 0  0.61 0.05 0  0.62 0.05 0  0.63 0.05 0  0.64 0.05 0  0.65 0.05 0  0.66 0.05 0  0.67 0.05 0  0.68 0.05 0  0.6899999999999999 0.05 0  0.7 0.05 0  0.71 0.05 0  0.72 0.05 0  0.73 0.05 0  0.74 0.05 0  0.75 0.05 0  0.76 0.05 0  0.77 0.05 0  0.78 0.05 0  0.79 0.05 0  0.8 0.05 0  0.8100000000000001 0.05 0  0.82 0.05 0  0.83 0.05 0  0.84 0.05 0  0.85 0.05 0  0.86 0.05 0  0.87 0.05 0  0.88 0.05 0  0.89 0.05 0  0.9 0.05 0  0.91 0.05 0  0.92 0.05 0  0.93 0.05 0  0.9399999999999999 0.05 0  0.95 0.05 0  0.96 0.05 0  0.97 0.05 0  0.98 0.05 0  0.99 0.05 0  1 0.05 0  0 0.06 0  0.01 0.06 0  0.02 0.06 0  0.03 0.06 0  0.04 0.06 0  0.05 0.06 0  0.06 0.06 0  0.07000000000000001 0.06 0  0.08 0.06 0  0.09 0.06 0  0.1 0.06 0  0.11 0.06 0  0.12 0.06 0  0.13 0.06 0  0.14 0.06 0  0.15 0.06 0  0.16 0.06 0  0.17 0.06 0  0.18 0.06 0  0.19 0.06 0  0.2 0.06 0  0.21 0.06 0  0.22 0.06 0  0.23 0.06 0  0.24 0.06 0  0.25 0.06 0  0.26 0.06 0  0.27 0.06 0  0.28 0.06 0  0.29 0.06 0  0.3 0.06 0  0.31 0.06 0  0.32 0.06 0  0.33 0.06 0  0.34 0.06 0  0.35 0.06 0  0.36 0.06 0  0.37 0.06 0  0.38 0.06 0  0.39 0.06 0  0.4 0.06 0  0.41 0.06 0  0.42 0.06 0  0.43 0.06 0  0.44 0.06 0  0.45 0.06 0  0.46 0.06 0  0.47 0.06 0  0.48 0.06 0  0.49 0.06 0  0.5 0.06 0  0.51 0.06 0  0.52 0.06 0  0.53 0.06 0  0.54 0.06 0  0.55 0.06 0  0.5600000000000001 0.06 0  0.57 0.06 0  0.58 0.06 0  0.59 0.06 0  0.6 0.06 0  0.61 0.06 0  0.62 0.06 0  0.63 0.06 0  0.64 0.06 0  0.65 0.06 0  0.66 0.06 0  0.67 0.06 0  0.68 0.06 0  0.6899999999999999 0.06 0  0.7 0.06 0  0.71 0.06 0  0.72 0.06 0  0.73 0.06 0  0.74 0.06 0  0.75 0.06 0  0.76 0.06 0  0.77 0.06 0  0.78 0.06 0  0.79 0.06 0  0.8 0.06 0  0.8100000000000001 0.06 0  0.82 0.06 0  0.83 0.06 0  0.84 0.06 0  0.85 0.06 0  0.86 0.06 0  0.87 0.06 0  0.88 0.06 0  0.89 0.06 0  0.9 0.06 0  0.91 0.06 0  0.92 0.06 0  0.93 0.06 0  0.9399999999999999 0.06 0  0.95 0.06 0  0.96 0.06 0  0.97 0.06 0  0.98 0.06 0  0.99 0.06 0  1 0.06 0  0 0.07000000000000001 0  0.01 0.07000000000000001 0  0.02 0.07000000000000001 0  0.03 0.07000000000000001 0  0.04 0.07000000000000001 0  0.05 0.07000000000000001 0  0.06 0.07000000000000001 0  0.07000000000000001 0.07000000000000001 0  0.08 0.07000000000000001 0  0.09 0.07000000000000001 0  0.1 0.07000000000000001 0  0.11 0.07000000000000001 0  0.12 0.07000000000000001 0  0.13 0.07000000000000001 0  0.14 0.07000000000000001 0  0.15 0.07000000000000001 0  0.16 0.07000000000000001 0  0.17 0.0700
[...]
<PointData  Scalars="f_17"> 
<DataArray  type="Float64"  Name="f_17"  format="ascii">0.0000000000000000e+00  5.0000000000000000e+01  5.0000000000000000e+01  5.0000000000000000e+01  5.0000000000000000e+01  5.0000000000000000e+01  5.0000000000000000e+01  5.0000000000000000e+01  5.0000000000000000e+01  5.0000000000000000e+01  5.0000000000000000e+01  5.0000000000000000e+01  5.0000000000000000e+01  5.0000000000000000e+01  5.0000000000000000e+01  5.0000000000000000e+01  5.0000000000000000e+01  5.0000000000000000e+01  5.0000000000000000e+01  5.0000000000000000e+01  5.0000000000000000e+01  5.0000000000000000e+01  5.0000000000000000e+01  5.0000000000000000e+01  5.0000000000000000e+01  5.0000000000000000e+01  5.0000000000000000e+01  5.0000000000000000e+01  5.0000000000000000e+01  5.0000000000000000e+01  5.0000000000000000e+01  5.0000000000000000e+01  5.0000000000000000e+01  5.0000000000000000e+01  5.0000000000000000e+01  5.0000000000000000e+01  5.0000000000000000e+01  5.0000000000000000e+01  5.0000000000000000e+01  5.0000000000000000e+01  5.0000000000000000e+01  5.0000000000000000e+01  5.0000000000000000e+01  5.0000000000000000e+01  5.0000000000000000e+01  5.0000000000000000e+01  5.0000000000000000e+01  5.0000000000000000e+01  5.0000000000000000e+01  5.0000000000000000e+01  5.0000000000000000e+01  5.0000000000000000e+01  5.0000000000000000e+01  5.0000000000000000e+01  5.0000000000000000e+01  5.0000000000000000e+01  5.0000000000000000e+01  5.0000000000000000e+01  5.0000000000000000e+01  5.0000000000000000e+01  5.0000000000000000e+01  5.0000000000000000e+01  5.0000000000000000e+01  5.0000000000000000e+01  5.0000000000000000e+01  5.0000000000000000e+01  5.0000000000000000e+01  5.0000000000000000e+01  5.0000000000000000e+01  5.0000000000000000e+01  5.0000000000000000e+01  5.0000000000000000e+01  5.0000000000000000e+01  5.0000000000000000e+01  5.0000000000000000e+01  5.0000000000000000e+01  5.0000000000000000e+01  5.0000000000000000e+01  5.0000000000000000e+01  5.0000000000000000e+01  5.0000000000000000e+01  5.0000000000000000e+01  5.0000000000000000e+01  5.0000000000000000e+01  5.0000000000000000e+01  5.0000000000000000e+01  5.0000000000000000e+01  5.0000000000000000e+01  5.0000000000000000e+01  5.0000000000000000e+01  5.0000000000000000e+01  5.0000000000000000e+01  5.0000000000000000e+01  5.0000000000000000e+01  5.0000000000000000e+01  5.0000000000000000e+01  5.0000000000000000e+01  5.0000000000000000e+01  5.0000000000000000e+01  5.0000000000000000e+01  0.0000000000000000e+00  0.0000000000000000e+00  2.4922116819778008e+01  3.5098064424596281e+01  3.9527484251100105e+01  4.1893001383037806e+01  4.3331347303389563e+01  4.4282680948896626e+01  4.4948854921419041e+01  4.5434574564154950e+01  4.5799344772141275e+01  4.6079422135969033e+01  4.6298138911595657e+01  4.6471183873104543e+01  4.6609491895444343e+01  4.6720914811657984e+01  4.6811233084380376e+01  4.6884792735108654e+01  4.6944920033864712e+01  4.6994199509564915e+01  4.7034665200542065e+01  4.7067935280379572e+01  4.7095308803824416e+01  4.7117836545476123e+01  4.7136373761142053e+01  4.7151620102064186e+01  4.7164150243212525e+01  4.7174437693106647e+01  4.7182873522453718e+01  4.7189781253160987e+01  4.7195428807516556e+01  4.7200038178380957e+01  4.7203793311972703e+01  4.7206846573478330e+01  4.7209324077694369e+01  4.7211330102356271e+01  4.7212950753943133e+01  4.7214257019870971e+01  4.7215307313793744e+01  4.7216149599890635e+01  4.7216823165852645e+01  4.7217360101596775e+01  4.7217786530651971e+01  4.7218123633049210e+01  4.7218388491931250e+01  4.7218594790634654e+01  4.7218753382422925e+01  4.7218872751169037e+01  4.7218959377946014e+01  4.7219018025567742e+01  4.7219051950531380e+01  4.7219063049473952e+01  4.7219051945097220e+01  4.7219018014485762e+01  4.7218959360784275e+01  4.7218872727267907e+01  4.7218753350880959e+01  4.7218594750290151e+01  4.7218388441339656e+01  4.7218123570456527e+01  4.7217786453964401e+01  4.7217360008347626e+01  4.7216823053166706e+01  4.7216149464447241e+01  4.7215307151788934e+01  4.7214256826980822e+01  4.7212950525289024e+01  4.7211329832473986e+01  4.7209323760508816e+01  4.7206846202285774e+01  4.7203792879433266e+01  4.7200037676522903e+01  4.7195428227754689e+01  4.7189780586331921e+01  4.7182872758869699e+01  4.7174436822629495e+01  4.7164149255349102e+01  4.7151618986084181e+01  4.7136372506217960e+01  4.7117835140844917e+01  4.7095307238968566e+01  4.7067933545224719e+01  4.7034663285667826e+01  4.6994197406423034e+01  4.6944917734998164e+01  4.6884790234364594e+01  4.6811230377107925e+01  4.6720911894881333e+01  4.6609488768000737e+01  4.6471180535734824e+01  4.6298135366975288e+01  4.6079418388663434e+01  4.5799340828466207e+01  4.5434570431914082e+01  4.4948850609468195e+01  4.4282676466432633e+01  4.3331342658708600e+01  4.1892996581004866e+01  3.9527479286580324e+01  3.5098059259517555e+01  2.4922111275569989e+01  0.0000000000000000e+00  0.0000000000000000e+00  1.4591181193344632e+01  2.4690025170752552e+01  3.0820969333883571e+01  3.4625517472183482e+01  3.7120220030431518e+01  3.8840842912368629e+01  4.0076593804399153e+01  4.0992452072426403e+01  4.1687952532060287e+01  4.2226211994529223e+01  4.2648999205080649e+01  4.2984976037598351e+01  4.3254425651651125e+01  4.3472083460862130e+01  4.3648897157633684e+01  4.3793157813886282e+01  4.3911248440761533e+01  4.4008152499887295e+01  4.4087807538127770e+01  4.4153356379944810e+01  4.4207329022436355e+01  4.4251776689342279e+01  4.4288372235169852e+01  4.4318486470102812e+01  4.4343246976010896e+01  4.4363583998397857e+01  4.4380266662416936e+01  4.4393931846903840e+01  4.4405107416088057e+01  4.4414231062674261e+01  4.4421665698523221e+01  4.4427712100540781e+01  4.4432619352907267e+01  4.4436593504248521e+01  4.4439804767203093e+01  4.4442393519312766e+01  4.4444475312080634e+01  4.4446145055014043e+01  4.4447480510350026e+01  4.4448545209671472e+01  4.4449390884122600e+01  4.4450059484195322e+01  4.4450584852205139e+01  4.4450994099934235e+01  4.4451308734994761e+01  4.4451545571879549e+01  4.4451717457125902e+01  4.4451833832297432e+01  4.4451901153399348e+01  4.4451923180741666e+01  4.4451901149015811e+01  4.4451833823350277e+01  4.4451717443250828e+01  4.4451545552519633e+01  4.4451308709387575e+01  4.4450994067095266e+01  4.4450584810907266e+01  4.4450059432944855e+01  4.4449390821131452e+01  4.4448545132826986e+01  4.4447480417182277e+01  4.4446144942661569e+01  4.4444475177255605e+01  4.4442393358266614e+01  4.4439804575693458e+01  4.4436593277510077e+01  4.4432619085626811e+01  4.4427711786839311e+01  4.4421665331946926e+01  4.4414230636196045e+01  4.4405106922122059e+01  4.4393931277334900e+01  4.4380266008646949e+01  4.4363583251410375e+01  4.4343246126455043e+01  4.4318485508396932e+01  4.4288371151625512e+01  4.4251775474306299e+01  4.4207327666449352e+01  4.4153354873912996e+01  4.4087805873503854e+01  4.4008150668853759e+01  4.3911246436409925e+01  4.3793155630383588e+01  4.3648894790366711e+01  4.3472080906547113e+01  4.3254422908397636e+01  4.2984973104911660e+01  4.2648996083786173e+01  4.2226208686598000e+01  4.1687949040307345e+01  4.0992448400041717e+01  4.0076589954242664e+01  3.8840838885904880e+01  3.7120215826056295e+01  3.4625513082439532e+01  3.0820964740763873e+01  2.4690020340488275e+01  1.4591176104981306e+01  0.0000000000000000e+00  0.0000000000000000e+00  1.0008329908690907e+01  1.8252990471470909e+01  2.4308371255092872e+01  2.8597548305535767e+01  3.1653048789190315e+01  3.3873864312362208e+01  3.5524526042755433e+01  3.6776778174203372e+01  3.7743517664508701e+01  3.8500713373628827e+01  3.9100826777519984e+01  3.9581009070683251e+01  3.9968186646242359e+01  4.0282286474055809e+01  4.0538330921606011e+01  4.0747830607754594e+01  4.0919731461365359e+01  4.1061072315991318e+01  4.1177450527434672e+01  4.1273357708683243e+01  4.1352425941312553e+01  4.1417611198618687e+01  4.1471332007911066e+01  4.1515575710293746e+01  4.1551980921439657e+01  4.1581902269818009e+01  4.1606461762668353e+01  4.1626589934569573e+01  4.1643059094906661e+01  4.1656510395280357e+01  4.1667476010585098e+01  4.1676397417430671e+01  4.1683640526296934e+01  4.1689508255504407e+01  4.1694251009193749e+01  4.1698075426373869e+01  4.1701151695451813e+01  4.1703619672570852e+01  4.1705593998291370e+01  4.1707168372548622e+01  4.1708419120150886e+01  4.1709408156674947e+01  4.1710185446239016e+01  4.1710791027367954e+01  4.1711256670319585e+01  4.1711607218283866e+01  4.1711861655394344e+01  4.1712033936178990e+01  4.1712133603671901e+01  4.1712166216690449e+01  4.1712133600577012e+01  4.1712033929847259e+01  4.1711861645537937e+01  4.1711607204461423e+01  4.1711256651924572e+01  4.1710791003613544e+01  4.1710185416138906e+01  4.1709408119021099e+01  4.1708419073487732e+01  4.1707168315144571e+01  4.1705593928107596e+01  4.1703619587228289e+01  4.1701151592197242e+01  4.1698075302045687e+01  4.1694250860188767e+01  4.1689508077747142e+01  4.1683640315212649e+01  4.1676397167924343e+01  4.1667475717027671e+01  4.1656510051505101e+01  4.1643058694216748e+01  4.1626589469759566e+01  4.1606461226061228e+01  4.1581901653319044e+01  4.1551980216608754e+01  4.1515574908436278e+01  4.1471331100187129e+01  4.1417610176169681e+01  4.1352424795402811e+01  4.1273356430852836e+01  4.1177449109659200e+01  4.1061070750841665e+01  4.0919729742159781e+01  4.0747828728693968e+01  4.0538328877881213e+01  4.0282284261913873e+01  3.9968184262997774e+01  3.9581006514657169e+01  3.9100824047888572e+01  3.8500710470156143e+01  3.7743514587135536e+01  3.6776774922450450e+01  3.5524522614883487e+01  3.3873860704206372e+01  3.1653044992564418e+01  2.8597544306171702e+01  2.4308367030617632e+01  1.8252985992051023e+01  1.0008325142891325e+01  0.0000000000000000e+00  0.0000000000000000e+00  7.4916857924347484e+00  1.4146948771434637e+01  1.9568842666478218e+01  2.3784707571582608e+01  2.7008927384899700e+01  2.9475362760148546e+01  3.1376903602968707e+01  3.2858178281115407e+01  3.4024245179256980e+01  3.4951050657959414e+01  3.5693887135933927e+01  3.6293504867664751e+01  3.6780361236850183e+01  3.7177546623425762e+01  3.7502805732875146e+01  3.7769947394157100e+01  3.7989840158478238e+01  3.8171125094719166e+01  3.8320733350779641e+01  3.8444267248577567e+01  3.8546284746505663e+01  3.8630514578204590e+01  3.8700021014171767e+01  3.8757331549516408e+01  3.8804536969772393e+01  3.8843370588217766e+01  3.8875271592632686e+01  3.8901436130376368e+01  3.8922858827581528e+01  3.8940366766579665e+01  3.8954647457526747e+01  3.8966271982152932e+01  3.8975714222529113e+01  3.8983366889767979e+01  3.8989554918307022e+01  3.8994546677790026e+01  3.8998563367192027e+01  3.9001786887938522e+01  3.9004366439428338e+01  3.9006424037973233e+01  3.9008059126064964e+01  3.9009352411112225e+01  3.9010369049894251e+01  3.9011161275860069e+01  3.9011770550236015e+01  3.9012229304053676e+01  3.9012562326183115e+01  3.9012787841864473e+01  3.9012918316759134e+01  3.9012961012928216e+01  3.9012918315166480e+01  3.9012787838579065e+01  3.9012562321001134e+01  3.9012229296660387e+01  3.9011770540195009e+01  3.9011161262599131e+01  3.9010369032687180e+01  3.9009352389057568e+01  3.9008059098061146e+01  3.9006424002690665e+01  3.9004366395278488e+01  3.9001786833040740e+01  3.8998563299338493e+01  3.8994546594409982e+01  3.8989554816430783e+01  3.8983366765992457e+01  3.8975714072986037e+01  3.8966271802482098e+01  3.8954647242855032e+01  3.8940366511508977e+01  3.8922858526187483e+01  3.8901435776219508e+01  3.8875271178784566e+01  3.8843370107303670e+01  3.8804536414032000e+01  3.8757330910882686e+01  3.8700020284368648e+01  3.8630513748861937e+01  3.8546283809289449e+01  3.8444266195331700e+01  3.8320732173674131e+01  3.8171123786397963e+01  3.7989838712198370e+01  3.7769945803908762e+01  3.7502803993470877e+01  3.7177544730544447e+01  3.6780359187020373e+01  3.6293502658169650e+01  3.5693884764617167e+01  3.4951048122908574e+01  3.4024242478337598e+01  3.2858175411322847e+01  3.1376900559560458e+01  2.9475359535522159e+01  2.7008923967209430e+01  2.3784703943197563e+01  1.9568838802637281e+01  1.4146944639522895e+01  7.4916813504157966e+00  0.0000000000000000e+00  0.0000000000000000e+00  5.9052300904865298e+00  1.1356771442242589e+01  1.6071979978526365e+01  1.9975425869582875e+01  2.3129228088529253e+01  2.5650954289547371e+01  2.7663228643992170e+01  2.9272895739639154e+01  3.0566257365081551e+01  3.1610773079497992e+01  3.2458545310651097e+01  3.3149762317517578e+01  3.3715552799091931e+01  3.4180195295793482e+01  3.4562778734123043e+01  3.4878436813453696e+01  3.5139264278126397e+01  3.5354999656402626e+01  3.5533537451362847e+01  3.5681315648297698e+01  3.5803611641327336e+01  3.5904770433201939e+01  3.5988382341448393e+01  3.6057422723065152e+01  3.6114362861007109e+01  3.6161258743072942e+01  3.6199822727196405e+01  3.6231481829590329e+01  3.6257425455579465e+01  3.6278644720278379e+01  3.6295965009121232e+01  3.6310073058163525e+01  3.6321539556512889e+01  3.6330838063443956e+01  3.6338360872859070e+01  3.6344432334827943e+01  3.6349320048540534e+01  3.6353244266226980e+01  3.6356385788354132e+01  3.6358892582942815e+01  3.6360885323373701e+01  3.6362462007487110e+01  3.6363701794570304e+01  3.6364668174791433e+01  3.6365411566884966e+01  3.6365971423729732e+01  3.6366377911346270e+01  3.6366653214348716e+01  3.6366812509664712e+01  3.6366864640094228e+01  3.6366812509759505e+01  3.6366653214483087e+01  3.6366377911406538e+01  3.6365971423536749e+01  3.6365411566184008e+01  3.6364668173238542e+01  3.6363701791714554e+01  3.6362462002749766e+01  3.6360885316023456e+01  3.6358892572067404e+01  3.6356385772828489e+01  3.6353244244678351e+01  3.6349320019310952e+01  3.6344432295934659e+01  3.6338360821953898e+01  3.6330837997772861e+01  3.6321539472877127e+01  3.6310072952884184e+01  3.6295964878008974e+01  3.6278644558610893e+01  3.6257425258088581e+01  3.6231481590461520e+01  3.6199822440082805e+01  3.6161258401126268e+01  3.6114362456926834e+01  3.6057422249167274e+01  3.5988381789753980e+01  3.5904769795544929e+01  3.5803610909479183e+01  3.5681314814105477e+01  3.5533536506895857e+01  3.5354998594100138e+01  3.5139263090937632e+01  3.4878435494959326e+01  3.4562777278625248e+01  3.4180193698359467e+01  3.3715551055534796e+01  3.3149760424295572e+01  3.2458543264665515e+01  3.1610770877767695e+01  3.0566255004271529e+01  2.9272893215419586e+01  2.7663225950208222e+01  2.5650951417191401e+01  2.3129225024535288e+01  1.9975422595513287e+01  1.6071976469244344e+01  1.1356767664466865e+01  5.9052260004932462e+00  0.0000000000000000e+00  0.0000000000000000e+00  4.8094710268905292e+00  9.3480234628647647e+00  1.3420779357906815e+01  1.6938477091444813e+01  1.9899651324894183e+01  2.2354413207603137e+01  2.4373350744428588e+01  2.6028697940499548e+01  2.7385577607873405e+01  2.8499206322562046e+01  2.9414974834901081e+01  3.0169647629324114e+01  3.0792830351184818e+01  3.1308348332500589e+01  3.1735418048963094e+01  3.2089596983716483e+01  3.2383536348484625e+01  3.2627571426958788e+01  3.2830183097448185e+01  3.2998359053071987e+01  3.3137877588533009e+01  3.3253531759449217e+01  3.3349307569567827e+01  3.3428526583898559e+01  3.3493960867782647e+01  3.3547926259306948e+01  3.3592358556954721e+01  3.3628876132868008e+01  3.3658831676326734e+01  3.3683355164846702e+01  3.3703389701212679e+01  3.3719721506177699e+01  3.3733005090521878e+01  3.3743784425915933e+01  3.3752510776164080e+01  3.3759557727445333e+01  3.3765233859592186e+01  3.3769793423875399e+01  3.3773445331438310e+01  3.3776360706880084e+01  3.3778679220839734e+01  3.3780514381768512e+01  3.3781957938866050e+01  3.3783083524229177e+01  3.3783949641733919e+01  3.3784602092342865e+01  3.3785075909853227e+01  3.3785396867141145e+01  3.3785582600344775e+01  3.3785643386865814e+01  3.3785582602280535e+01  3.3785396871004785e+01  3.3785075915625825e+01  3.3784602099987758e+01  3.3783949651186802e+01  3.3783083535384392e+01  3.3781957951559178e+01  3.3780514395755205e+01  3.3778679235770198e+01  3.3776360722269366e+01  3.3773445346632371e+01  3.3769793438013451e+01  3.3765233871564980e+01  3.3759557735850258e+01  3.3752510779258181e+01  3.3743784421567447e+01  3.3733005076162243e+01  3.3719721478755524e+01  3.3703389657151973e+01  3.3683355100011802e+01  3.3658831585996268e+01  3.3628876011721289e+01  3.3592358399072879e+01  3.3547926058191528e+01  3.3493960616394133e+01  3.3428526274716468e+01  3.3349307194672981e+01  3.3253531310628205e+01  3.3137877057403031e+01  3.2998358431222911e+01  3.2830182376596326e+01  3.2627570599105788e+01  3.2383535406071843e+01  3.2089595919763269e+01  3.1735416857175760e+01  3.1308347007336511e+01  3.0792828887854082e+01  3.0169646023710587e+01  2.9414973083383092e+01  2.8499204421713060e+01  2.7385575554024054e+01  2.6028695729144939e+01  2.4373348369471373e+01  2.2354410660434358e+01  1.9899648593331381e+01  1.6938474158561743e+01  1.3420776200772343e+01  9.3480200511266318e+00  4.8094673210282517e+00  0.0000000000000000e+00  0.0000000000000000e+00  4.0031684538190273e+00  7.8327188992857311e+00  1.1352534434548753e+01  1.4483389915855907e+01  1.7200573175902512e+01  1.9518718642348812e+01  2.1474606497725482e+01  2.3113848826712285e+01  2.4482657178379807e+01  2.5623635343600061e+01  2.6574123554604800e+01  2.7365935584484721e+01  2.8025754600021124e+01  2.8575777920902727e+01  2.9034403960056999e+01  2.9416868690508490e+01  2.9735798204757501e+01  3.0001672391473566e+01  3.0223207017244206e+01  3.0407665698484578e+01  3.0561113689729421e+01  3.0688624289356664e+01  3.0794447035922062e+01  3.0882145221950186e+01  3.0954708782957798e+01  3.1014647385587761e+01  3.1064067536328118e+01  3.1104736733591547e+01  3.1138137056740430e+01  3.1165510093114573e+01  3.1187894719696299e+01  3.1206158956130562e+01  3.1221026871481612e+01  3.1233101343427549e+01  3.1242883323957507e+01  3.1250788151058636e+01  3.1257159354456878e+01  3.1262280329914184e+01  3.1266384196842370e+01  3.1269662104977392e+01  3.1272270215213688e+01  3.1274335545620858e+01  3.1275960844778044e+01  3.1277228629793612e+01  3.1278204504914150e+01  3.1278939857807316e+01  3.1279474013919572e+01  3.1279835914334420e+01  3.1280045368943490e+01  3.1280113924184729e+01  3.1280045372839616e+01  3.1279835922167802e+01  3.1279474025769307e+01  3.1278939873783919e+01  3.1278204525149498e+01  3.1277228654427280e+01  3.1275960873939376e+01  3.1274335579407083e+01  3.1272270253662946e+01  3.1269662148037092e+01  3.1266384244332237e+01  3.1262280381484484e+01  3.1257159409541519e+01  3.1250788208823725e+01  3.1242883383246252e+01  3.1233101402702513e+01  3.1221026928765667e+01  3.1206159008948781e+01  3.1187894765020928e+01  3.1165510127316047e+01  3.1138137075546855e+01  3.1104736732060886e+01  3.1064067508835699e+01  3.1014647325832978e+01  3.0954708683992415e+01  3.0882145076231161e+01  3.0794446835390271e+01  3.0688624025541849e+01  3.0561113353880145e+01  3.0407665281720544e+01  3.0223206510725866e+01  3.0001671786581735e+01  2.9735797493273907e+01  2.9416867864784901e+01  2.9034403013159093e+01  2.8575776846712849e+01  2.8025753393281786e+01  2.7365934240764528e+01  2.6574122070167842e+01  2.5623633715160594e+01  2.4482655402726689e+01  2.3113846900191639e+01  2.1474604415577485e+01  1.9518716397904129e+01  1.7200570759655804e+01  1.4483387314440980e+01  1.1352531629637303e+01  7.8327158664259020e+00  4.0031651612364909e+00  0.0000000000000000e+00  0.0000000000000000e+00  3.3821670383910871e+00  6.6469755807507029e+00  9.6971398006004446e+00  1.2467708070095062e+01  1.4927843617598024e+01  1.7074840389454131e+01  1.8925081433633999e+01  2.0505544594778055e+01  2.1847459152455226e+01  2.2982264978621391e+01  2.3939385582862045e+01  2.4745215617936868e+01  2.5422833699563807e+01  2.5992105311857568e+01  2.6469968953166617e+01  2.6870787627153629e+01  2.7206703502961723e+01  2.7487966182474260e+01  2.7723223056916261e+01  2.7919769634776774e+01  2.8083762221897327e