<?xml version="1.0"?>
<VTKFile type="UnstructuredGrid"  version="0.1"  >
<UnstructuredGrid>
<Piece  NumberOfPoints="10201" NumberOfCells="20000">
<Points>
<DataArray  type="Float64"  NumberOfComponents="3"  format="ascii">0 0 0  0.01 0 0  0.02 0 0  0.03 0 0  0.04 0 0  0.05 0 0  0.06 0 0  0.07000000000000001 0 0  0.08 0 0  0.09 0 0  0.1 0 0  0.11 0 0  0.12 0 0  0.13 0 0  0.14 0 0  0.15 0 0  0.16 0 0  0.17 0 0  0.18 0 0  0.19 0 0  0.2 0 0  0.21 0 0  0.22 0 0  0.23 0 0  0.24 0 0  0.25 0 0  0.26 0 0  0.27 0 0  0.28 0 0  0.29 0 0  0.3 0 0  0.31 0 0  0.32 0 0  0.33 0 0  0.34 0 0  0.35 0 0  0.36 0 0  0.37 0 0  0.38 0 0  0.39 0 0  0.4 0 0  0.41 0 0  0.42 0 0  0.43 0 0  0.44 0 0  0.45 0 0  0.46 0 0  0.47 0 0  0.48 0 0  0.49 0 0  0.5 0 0  0.51 0 0  0.52 0 0  0.53 0 0  0.54 0 0  0.55 0 0  0.5600000000000001 0 0  0.57 0 0  0.58 0 0  0.59 0 0  0.6 0 0  0.61 0 0  0.62 0 0  0.63 0 0  0.64 0 0  0.65 0 0  0.66 0 0  0.67 0 0  0.68 0 0  0.6899999999999999 0 0  0.7 0 0  0.71 0 0  0.72 0 0  0.73 0 0  0.74 0 0  0.75 0 0  0.76 0 0  0.77 0 0  0.78 0 0  0.79 0 0  0.8 0 0  0.8100000000000001 0 0  0.82 0 0  0.83 0 0  0.84 0 0  0.85 0 0  0.86 0 0  0.87 0 0  0.88 0 0  0.89 0 0  0.9 0 0  0.91 0 0  0.92 0 0  0.93 0 0  0.9399999999999999 0 0  0.95 0 0  0.96 0 0  0.97 0 0  0.98 0 0  0.99 0 0  1 0 0  0 0.01 0  0.01 0.01 0  0.02 0.01 0  0.03 0.01 0  0.04 0.01 0  0.05 0.01 0  0.06 0.01 0  0.07000000000000001 0.01 0  0.08 0.01 0  0.09 0.01 0  0.1 0.01 0  0.11 0.01 0  0.12 0.01 0  0.13 0.01 0  0.14 0.01 0  0.15 0.01 0  0.16 0.01 0  0.17 0.01 0  0.18 0.01 0  0.19 0.01 0  0.2 0.01 0  0.21 0.01 0  0.22 0.01 0  0.23 0.01 0  0.24 0.01 0  0.25 0.01 0  0.26 0.01 0  0.27 0.01 0  0.28 0.01 0  0.29 0.01 0  0.3 0.01 0  0.31 0.01 0  0.32 0.01 0  0.33 0.01 0  0.34 0.01 0  0.35 0.01 0  0.36 0.01 0  0.37 0.01 0  0.38 0.01 0  0.39 0.01 0  0.4 0.01 0  0.41 0.01 0  0.42 0.01 0  0.43 0.01 0  0.44 0.01 0  0.45 0.01 0  0.46 0.01 0  0.47 0.01 0  0.48 0.01 0  0.49 0.01 0  0.5 0.01 0  0.51 0.01 0  0.52 0.01 0  0.53 0.01 0  0.54 0.01 0  0.55 0.01 0  0.5600000000000001 0.01 0  0.57 0.01 0  0.58 0.01 0  0.59 0.01 0  0.6 0.01 0  0.61 0.01 0  0.62 0.01 0  0.63 0.01 0  0.64 0.01 0  0.65 0.01 0  0.66 0.01 0  0.67 0.01 0  0.68 0.01 0  0.6899999999999999 0.01 0  0.7 0.01 0  0.71 0.01 0  0.72 0.01 0  0.73 0.01 0  0.74 0.01 0  0.75 0.01 0  0.76 0.01 0  0.77 0.01 0  0.78 0.01 0  0.79 0.01 0  0.8 0.01 0  0.8100000000000001 0.01 0  0.82 0.01 0  0.83 0.01 0  0.84 0.01 0  0.85 0.01 0  0.86 0.01 0  0.87 0.01 0  0.88 0.01 0  0.89 0.01 0  0.9 0.01 0  0.91 0.01 0  0.92 0.01 0  0.93 0.01 0  0.9399999999999999 0.01 0  0.95 0.01 0  0.96 0.01 0  0.97 0.01 0  0.98 0.01 0  0.99 0.01 0  1 0.01 0  0 0.02 0  0.01 0.02 0  0.02 0.02 0  0.03 0.02 0  0.04 0.02 0  0.05 0.02 0  0.06 0.02 0  0.07000000000000001 0.02 0  0.08 0.02 0  0.09 0.02 0  0.1 0.02 0  0.11 0.02 0  0.12 0.02 0  0.13 0.02 0  0.14 0.02 0  0.15 0.02 0  0.16 0.02 0  0.17 0.02 0  0.18 0.02 0  0.19 0.02 0  0.2 0.02 0  0.21 0.02 0  0.22 0.02 0  0.23 0.02 0  0.24 0.02 0  0.25 0.02 0  0.26 0.02 0  0.27 0.02 0  0.28 0.02 0  0.29 0.02 0  0.3 0.02 0  0.31 0.02 0  0.32 0.02 0  0.33 0.02 0  0.34 0.02 0  0.35 0.02 0  0.36 0.02 0  0.37 0.02 0  0.38 0.02 0  0.39 0.02 0  0.4 0.02 0  0.41 0.02 0  0.42 0.02 0  0.43 0.02 0  0.44 0.02 0  0.45 0.02 0  0.46 0.02 0  0.47 0.02 0  0.48 0.02 0  0.49 0.02 0  0.5 0.02 0  0.51 0.02 0  0.52 0.02 0  0.53 0.02 0  0.54 0.02 0  0.55 0.02 0  0.5600000000000001 0.02 0  0.57 0.02 0  0.58 0.02 0  0.59 0.02 0  0.6 0.02 0  0.61 0.02 0  0.62 0.02 0  0.63 0.02 0  0.64 0.02 0  0.65 0.02 0  0.66 0.02 0  0.67 0.02 0  0.68 0.02 0  0.6899999999999999 0.02 0  0.7 0.02 0  0.71 0.02 0  0.72 0.02 0  0.73 0.02 0  0.74 0.02 0  0.75 0.02 0  0.76 0.02 0  0.77 0.02 0  0.78 0.02 0  0.79 0.02 0  0.8 0.02 0  0.8100000000000001 0.02 0  0.82 0.02 0  0.83 0.02 0  0.84 0.02 0  0.85 0.02 0  0.86 0.02 0  0.87 0.02 0  0.88 0.02 0  0.89 0.02 0  0.9 0.02 0  0.91 0.02 0  0.92 0.02 0  0.93 0.02 0  0.9399999999999999 0.02 0  0.95 0.02 0  0.96 0.02 0  0.97 0.02 0  0.98 0.02 0  0.99 0.02 0  1 0.02 0  0 0.03 0  0.01 0.03 0  0.02 0.03 0  0.03 0.03 0  0.04 0.03 0  0.05 0.03 0  0.06 0.03 0  0.07000000000000001 0.03 0  0.08 0.03 0  0.09 0.03 0  0.1 0.03 0  0.11 0.03 0  0.12 0.03 0  0.13 0.03 0  0.14 0.03 0  0.15 0.03 0  0.16 0.03 0  0.17 0.03 0  0.18 0.03 0  0.19 0.03 0  0.2 0.03 0  0.21 0.03 0  0.22 0.03 0  0.23 0.03 0  0.24 0.03 0  0.25 0.03 0  0.26 0.03 0  0.27 0.03 0  0.28 0.03 0  0.29 0.03 0  0.3 0.03 0  0.31 0.03 0  0.32 0.03 0  0.33 0.03 0  0.34 0.03 0  0.35 0.03 0  0.36 0.03 0  0.37 0.03 0  0.38 0.03 0  0.39 0.03 0  0.4 0.03 0  0.41 0.03 0  0.42 0.03 0  0.43 0.03 0  0.44 0.03 0  0.45 0.03 0  0.46 0.03 0  0.47 0.03 0  0.48 0.03 0  0.49 0.03 0  0.5 0.03 0  0.51 0.03 0  0.52 0.03 0  0.53 0.03 0  0.54 0.03 0  0.55 0.03 0  0.5600000000000001 0.03 0  0.57 0.03 0  0.58 0.03 0  0.59 0.03 0  0.6 0.03 0  0.61 0.03 0  0.62 0.03 0  0.63 0.03 0  0.64 0.03 0  0.65 0.03 0  0.66 0.03 0  0.67 0.03 0  0.68 0.03 0  0.6899999999999999 0.03 0  0.7 0.03 0  0.71 0.03 0  0.72 0.03 0  0.73 0.03 0  0.74 0.03 0  0.75 0.03 0  0.76 0.03 0  0.77 0.03 0  0.78 0.03 0  0.79 0.03 0  0.8 0.03 0  0.8100000000000001 0.03 0  0.82 0.03 0  0.83 0.03 0  0.84 0.03 0  0.85 0.03 0  0.86 0.03 0  0.87 0.03 0  0.88 0.03 0  0.89 0.03 0  0.9 0.03 0  0.91 0.03 0  0.92 0.03 0  0.93 0.03 0  0.9399999999999999 0.03 0  0.95 0.03 0  0.96 0.03 0  0.97 0.03 0  0.98 0.03 0  0.99 0.03 0  1 0.03 0  0 0.04 0  0.01 0.04 0  0.02 0.04 0  0.03 0.04 0  0.04 0.04 0  0.05 0.04 0  0.06 0.04 0  0.07000000000000001 0.04 0  0.08 0.04 0  0.09 0.04 0  0.1 0.04 0  0.11 0.04 0  0.12 0.04 0  0.13 0.04 0  0.14 0.04 0  0.15 0.04 0  0.16 0.04 0  0.17 0.04 0  0.18 0.04 0  0.19 0.04 0  0.2 0.04 0  0.21 0.04 0  0.22 0.04 0  0.23 0.04 0  0.24 0.04 0  0.25 0.04 0  0.26 0.04 0  0.27 0.04 0  0.28 0.04 0  0.29 0.04 0  0.3 0.04 0  0.31 0.04 0  0.32 0.04 0  0.33 0.04 0  0.34 0.04 0  0.35 0.04 0  0.36 0.04 0  0.37 0.04 0  0.38 0.04 0  0.39 0.04 0  0.4 0.04 0  0.41 0.04 0  0.42 0.04 0  0.43 0.04 0  0.44 0.04 0  0.45 0.04 0  0.46 0.04 0  0.47 0.04 0  0.48 0.04 0  0.49 0.04 0  0.5 0.04 0  0.51 0.04 0  0.52 0.04 0  0.53 0.04 0  0.54 0.04 0  0.55 0.04 0  0.5600000000000001 0.04 0  0.57 0.04 0  0.58 0.04 0  0.59 0.04 0  0.6 0.04 0  0.61 0.04 0  0.62 0.04 0  0.63 0.04 0  0.64 0.04 0  0.65 0.04 0  0.66 0.04 0  0.67 0.04 0  0.68 0.04 0  0.6899999999999999 0.04 0  0.7 0.04 0  0.71 0.04 0  0.72 0.04 0  0.73 0.04 0  0.74 0.04 0  0.75 0.04 0  0.76 0.04 0  0.77 0.04 0  0.78 0.04 0  0.79 0.04 0  0.8 0.04 0  0.8100000000000001 0.04 0  0.82 0.04 0  0.83 0.04 0  0.84 0.04 0  0.85 0.04 0  0.86 0.04 0  0.87 0.04 0  0.88 0.04 0  0.89 0.04 0  0.9 0.04 0  0.91 0.04 0  0.92 0.04 0  0.93 0.04 0  0.9399999999999999 0.04 0  0.95 0.04 0  0.96 0.04 0  0.97 0.04 0  0.98 0.04 0  0.99 0.04 0  1 0.04 0  0 0.05 0  0.01 0.05 0  0.02 0.05 0  0.03 0.05 0  0.04 0.05 0  0.05 0.05 0  0.06 0.05 0  0.07000000000000001 0.05 0  0.08 0.05 0  0.09 0.05 0  0.1 0.05 0  0.11 0.05 0  0.12 0.05 0  0.13 0.05 0  0.14 0.05 0  0.15 0.05 0  0.16 0.05 0  0.17 0.05 0  0.18 0.05 0  0.19 0.05 0  0.2 0.05 0  0.21 0.05 0  0.22 0.05 0  0.23 0.05 0  0.24 0.05 0  0.25 0.05 0  0.26 0.05 0  0.27 0.05 0  0.28 0.05 0  0.29 0.05 0  0.3 0.05 0  0.31 0.05 0  0.32 0.05 0  0.33 0.05 0  0.34 0.05 0  0.35 0.05 0  0.36 0.05 0  0.37 0.05 0  0.38 0.05 0  0.39 0.05 0  0.4 0.05 0  0.41 0.05 0  0.42 0.05 0  0.43 0.05 0  0.44 0.05 0  0.45 0.05 0  0.46 0.05 0  0.47 0.05 0  0.48 0.05 0  0.49 0.05 0  0.5 0.05 0  0.51 0.05 0  0.52 0.05 0  0.53 0.05 0  0.54 0.05 0  0.55 0.05 0  0.5600000000000001 0.05 0  0.57 0.05 0  0.58 0.05 0  0.59 0.05 0  0.6 0.05 0  0.61 0.05 0  0.62 0.05 0  0.63 0.05 0  0.64 0.05 0  0.65 0.05 0  0.66 0.05 0  0.67 0.05 0  0.68 0.05 0  0.6899999999999999 0.05 0  0.7 0.05 0  0.71 0.05 0  0.72 0.05 0  0.73 0.05 0  0.74 0.05 0  0.75 0.05 0  0.76 0.05 0  0.77 0.05 0  0.78 0.05 0  0.79 0.05 0  0.8 0.05 0  0.8100000000000001 0.05 0  0.82 0.05 0  0.83 0.05 0  0.84 0.05 0  0.85 0.05 0  0.86 0.05 0  0.87 0.05 0  0.88 0.05 0  0.89 0.05 0  0.9 0.05 0  0.91 0.05 0  0.92 0.05 0  0.93 0.05 0  0.9399999999999999 0.05 0  0.95 0.05 0  0.96 0.05 0  0.97 0.05 0  0.98 0.05 0  0.99 0.05 0  1 0.05 0  0 0.06 0  0.01 0.06 0  0.02 0.06 0  0.03 0.06 0  0.04 0.06 0  0.05 0.06 0  0.06 0.06 0  0.07000000000000001 0.06 0  0.08 0.06 0  0.09 0.06 0  0.1 0.06 0  0.11 0.06 0  0.12 0.06 0  0.13 0.06 0  0.14 0.06 0  0.15 0.06 0  0.16 0.06 0  0.17 0.06 0  0.18 0.06 0  0.19 0.06 0  0.2 0.06 0  0.21 0.06 0  0.22 0.06 0  0.23 0.06 0  0.24 0.06 0  0.25 0.06 0  0.26 0.06 0  0.27 0.06 0  0.28 0.06 0  0.29 0.06 0  0.3 0.06 0  0.31 0.06 0  0.32 0.06 0  0.33 0.06 0  0.34 0.06 0  0.35 0.06 0  0.36 0.06 0  0.37 0.06 0  0.38 0.06 0  0.39 0.06 0  0.4 0.06 0  0.41 0.06 0  0.42 0.06 0  0.43 0.06 0  0.44 0.06 0  0.45 0.06 0  0.46 0.06 0  0.47 0.06 0  0.48 0.06 0  0.49 0.06 0  0.5 0.06 0  0.51 0.06 0  0.52 0.06 0  0.53 0.06 0  0.54 0.06 0  0.55 0.06 0  0.5600000000000001 0.06 0  0.57 0.06 0  0.58 0.06 0  0.59 0.06 0  0.6 0.06 0  0.61 0.06 0  0.62 0.06 0  0.63 0.06 0  0.64 0.06 0  0.65 0.06 0  0.66 0.06 0  0.67 0.06 0  0.68 0.06 0  0.6899999999999999 0.06 0  0.7 0.06 0  0.71 0.06 0  0.72 0.06 0  0.73 0.06 0  0.74 0.06 0  0.75 0.06 0  0.76 0.06 0  0.77 0.06 0  0.78 0.06 0  0.79 0.06 0  0.8 0.06 0  0.8100000000000001 0.06 0  0.82 0.06 0  0.83 0.06 0  0.84 0.06 0  0.85 0.06 0  0.86 0.06 0  0.87 0.06 0  0.88 0.06 0  0.89 0.06 0  0.9 0.06 0  0.91 0.06 0  0.92 0.06 0  0.93 0.06 0  0.9399999999999999 0.06 0  0.95 0.06 0  0.96 0.06 0  0.97 0.06 0  0.98 0.06 0  0.99 0.06 0  1 0.06 0  0 0.07000000000000001 0  0.01 0.07000000000000001 0  0.02 0.07000000000000001 0  0.03 0.07000000000000001 0  0.04 0.07000000000000001 0  0.05 0.07000000000000001 0  0.06 0.07000000000000001 0  0.07000000000000001 0.07000000000000001 0  0.08 0.07000000000000001 0  0.09 0.07000000000000001 0  0.1 0.07000000000000001 0  0.11 0.07000000000000001 0  0.12 0.07000000000000001 0  0.13 0.07000000000000001 0  0.14 0.07000000000000001 0  0.15 0.07000000000000001 0  0.16 0.07000000000000001 0  0.17 0.0700
[...]
<PointData  Scalars="f_17"> 
<DataArray  type="Float64"  Name="f_17"  format="ascii">0.0000000000000000e+00  5.0000000000000000e+01  5.0000000000000000e+01  5.0000000000000000e+01  5.0000000000000000e+01  5.0000000000000000e+01  5.0000000000000000e+01  5.0000000000000000e+01  5.0000000000000000e+01  5.0000000000000000e+01  5.0000000000000000e+01  5.0000000000000000e+01  5.0000000000000000e+01  5.0000000000000000e+01  5.0000000000000000e+01  5.0000000000000000e+01  5.0000000000000000e+01  5.0000000000000000e+01  5.0000000000000000e+01  5.0000000000000000e+01  5.0000000000000000e+01  5.0000000000000000e+01  5.0000000000000000e+01  5.0000000000000000e+01  5.0000000000000000e+01  5.0000000000000000e+01  5.0000000000000000e+01  5.0000000000000000e+01  5.0000000000000000e+01  5.0000000000000000e+01  5.0000000000000000e+01  5.0000000000000000e+01  5.0000000000000000e+01  5.0000000000000000e+01  5.0000000000000000e+01  5.0000000000000000e+01  5.0000000000000000e+01  5.0000000000000000e+01  5.0000000000000000e+01  5.0000000000000000e+01  5.0000000000000000e+01  5.0000000000000000e+01  5.0000000000000000e+01  5.0000000000000000e+01  5.0000000000000000e+01  5.0000000000000000e+01  5.0000000000000000e+01  5.0000000000000000e+01  5.0000000000000000e+01  5.0000000000000000e+01  5.0000000000000000e+01  5.0000000000000000e+01  5.0000000000000000e+01  5.0000000000000000e+01  5.0000000000000000e+01  5.0000000000000000e+01  5.0000000000000000e+01  5.0000000000000000e+01  5.0000000000000000e+01  5.0000000000000000e+01  5.0000000000000000e+01  5.0000000000000000e+01  5.0000000000000000e+01  5.0000000000000000e+01  5.0000000000000000e+01  5.0000000000000000e+01  5.0000000000000000e+01  5.0000000000000000e+01  5.0000000000000000e+01  5.0000000000000000e+01  5.0000000000000000e+01  5.0000000000000000e+01  5.0000000000000000e+01  5.0000000000000000e+01  5.0000000000000000e+01  5.0000000000000000e+01  5.0000000000000000e+01  5.0000000000000000e+01  5.0000000000000000e+01  5.0000000000000000e+01  5.0000000000000000e+01  5.0000000000000000e+01  5.0000000000000000e+01  5.0000000000000000e+01  5.0000000000000000e+01  5.0000000000000000e+01  5.0000000000000000e+01  5.0000000000000000e+01  5.0000000000000000e+01  5.0000000000000000e+01  5.0000000000000000e+01  5.0000000000000000e+01  5.0000000000000000e+01  5.0000000000000000e+01  5.0000000000000000e+01  5.0000000000000000e+01  5.0000000000000000e+01  5.0000000000000000e+01  5.0000000000000000e+01  5.0000000000000000e+01  0.0000000000000000e+00  0.0000000000000000e+00  2.4867765793927877e+01  3.4989737766450780e+01  3.9365935739985851e+01  4.1679340369521107e+01  4.3067014473814687e+01  4.3969417398751624e+01  4.4588665784904478e+01  4.5029688552732850e+01  4.5352171052983302e+01  4.5592505993340453e+01  4.5774117578540874e+01  4.5912743804869280e+01  4.6019328591558022e+01  4.6101696094377552e+01  4.6165566521903209e+01  4.6215197672774899e+01  4.6253804478232055e+01  4.6283841909315647e+01  4.6307200992647736e+01  4.6325347925020374e+01  4.6339424919811059e+01  4.6350324679539803e+01  4.6358746277690898e+01  4.6365237661611552e+01  4.6370228343450449e+01  4.6374054771791933e+01  4.6376980161046475e+01  4.6379210069865401e+01  4.6380904683825484e+01  4.6382188520816186e+01  4.6383158107517431e+01  4.6383888050971933e+01  4.6384435836620945e+01  4.6384845614002984e+01  4.6385151177338976e+01  4.6385378306145157e+01  4.6385546597838733e+01  4.6385670897915567e+01  4.6385762412158350e+01  4.6385829568354794e+01  4.6385878681321572e+01  4.6385914463994844e+01  4.6385940418446474e+01  4.6385959133518242e+01  4.6385972509996762e+01  4.6385981929617955e+01  4.6385988380460560e+01  4.6385992548290915e+01  4.6385994880979013e+01  4.6385995631110568e+01  4.6385994880236019e+01  4.6385992546736375e+01  4.6385988377952017e+01  4.6385981925928718e+01  4.6385972504799085e+01  4.6385959126359673e+01  4.6385940408719087e+01  4.6385914450894219e+01  4.6385878663794990e+01  4.6385829545036550e+01  4.6385762381289737e+01  4.6385670857247142e+01  4.6385546544512081e+01  4.6385378236551858e+01  4.6385151086954323e+01  4.6384845497192323e+01  4.6384435686417085e+01  4.6383887858823847e+01  4.6383157863011427e+01  4.6382188211372508e+01  4.6380904294376592e+01  4.6379209582525000e+01  4.6376979554781677e+01  4.6374054022115672e+01  4.6370227422155146e+01  4.6365236536569213e+01  4.6358744912749202e+01  4.6350323034546172e+01  4.6339422950797584e+01  4.6325345584582976e+01  4.6307198230548430e+01  4.6283838673329079e+01  4.6253800715247081e+01  4.6215193330146953e+01  4.6165561549031658e+01  4.6101690444460431e+01  4.6019322223449080e+01  4.5912736684932682e+01  4.5774109682370003e+01  4.5592497307175620e+01  4.5352161574628596e+01  4.5029678291730711e+01  4.4588654761646183e+01  4.3969405642026985e+01  4.3067002015812442e+01  4.1679327235694444e+01  3.9365921925010326e+01  3.4989723158325688e+01  2.4867749840651285e+01  0.0000000000000000e+00  0.0000000000000000e+00  1.4483615102658913e+01  2.4475641606315218e+01  3.0501258583271721e+01  3.4202673293173739e+01  3.6597091522011688e+01  3.8220873361913981e+01  3.9363748806447397e+01  4.0191139563976598e+01  4.0802937565214556e+01  4.1262529095415246e+01  4.1611865059370437e+01  4.1879705014751856e+01  4.2086350355711474e+01  4.2246482102657801e+01  4.2370929110488703e+01  4.2467808270387799e+01  4.2543282656939510e+01  4.2602079716199050e+01  4.2647854319674295e+01  4.2683448831719460e+01  4.2711083114224678e+01  4.2732495769580964e+01  4.2749050720193971e+01  4.2761818658405176e+01  4.2771639948104585e+01  4.2779173612280324e+01  4.2784935732918747e+01  4.2789329695198155e+01  4.2792670085054858e+01  4.2795201607529478e+01  4.2797114074345259e+01  4.2798554274620308e+01  4.2799635367059508e+01  4.2800444298377698e+01  4.2801047649499374e+01  4.2801496230303997e+01  4.2801828679778012e+01  4.2802074277449456e+01  4.2802255131055752e+01  4.2802387872414620e+01  4.2802484966835344e+01  4.2802555719883799e+01  4.2802607047932561e+01  4.2802644064905202e+01  4.2802670526326366e+01  4.2802689162703402e+01  4.2802701926949233e+01  4.2802710174662025e+01  4.2802714791285233e+01  4.2802716276239103e+01  4.2802714790802739e+01  4.2802710173649544e+01  4.2802701925308021e+01  4.2802689160275676e+01  4.2802670522882579e+01  4.2802644060126362e+01  4.2802607041386793e+01  4.2802555710994781e+01  4.2802484954842427e+01  4.2802387856322071e+01  4.2802255109569977e+01  4.2802074248900908e+01  4.2801828642025896e+01  4.2801496180621669e+01  4.2801047584437249e+01  4.2800444213602042e+01  4.2799635257164887e+01  4.2798554132915307e+01  4.2797113892611989e+01  4.2795201375757941e+01  4.2792669791157550e+01  4.2789329324711566e+01  4.2784935268702426e+01  4.2779173034227313e+01  4.2771639232881896e+01  4.2761817779246876e+01  4.2749049646772839e+01  4.2732494467988573e+01  4.2711081547089904e+01  4.2683446958496091e+01  4.2647852097124705e+01  4.2602077099092767e+01  4.2543279598974607e+01  4.2467804725327241e+01  4.2370925033481655e+01  4.2246477451689657e+01  4.2086345093096654e+01  4.1879699108549254e+01  4.1611858484562930e+01  4.1262521834656845e+01  4.0802929608897635e+01  4.0191130909311646e+01  3.9363739455142763e+01  3.8220863315842742e+01  3.6597080775831195e+01  3.4202661821986695e+01  3.0501246322271683e+01  2.4475628425343785e+01  1.4483600874699057e+01  0.0000000000000000e+00  0.0000000000000000e+00  9.8497897364688889e+00  1.7937014938802751e+01  2.3837154081927309e+01  2.7974318810247354e+01  3.0882001166983631e+01  3.2960067721024124e+01  3.4473818910379613e+01  3.5595650611009013e+01  3.6438986119319893e+01  3.7080191719141126e+01  3.7571997850784797e+01  3.7951700361674114e+01  3.8246253352430621e+01  3.8475504562862376e+01  3.8654302207763081e+01  3.8793901200058727e+01  3.8902924299952922e+01  3.8988033937801141e+01  3.9054411687147727e+01  3.9106107060410970e+01  3.9146295660236632e+01  3.9177473192384859e+01  3.9201603229887645e+01  3.9220231031559450e+01  3.9234572033432691e+01  3.9245581161294076e+01  3.9254007428951567e+01  3.9260437120582530e+01  3.9265328033946084e+01  3.9269036672483374e+01  3.9271839844969527e+01  3.9273951812743071e+01  3.9275537884004038e+01  3.9276725170175261e+01  3.9277611075746620e+01  3.9278269979903648e+01  3.9278758478212531e+01  3.9279119480426274e+01  3.9279385402244586e+01  3.9279580641744786e+01  3.9279723493012256e+01  3.9279827618547010e+01  3.9279903176956090e+01  3.9279957682170043e+01  3.9279996654063140e+01  3.9280024107166739e+01  3.9280042913537955e+01  3.9280055067257997e+01  3.9280061871058571e+01  3.9280064059828511e+01  3.9280061870919518e+01  3.9280055066959576e+01  3.9280042913037320e+01  3.9280024106393775e+01  3.9279996652913006e+01  3.9279957680492437e+01  3.9279903174540131e+01  3.9279827615101318e+01  3.9279723488138252e+01  3.9279580634902452e+01  3.9279385392707901e+01  3.9279119467227069e+01  3.9278758460069895e+01  3.9278269955135926e+01  3.9277611042164018e+01  3.9276725124949287e+01  3.9275537823512018e+01  3.9273951732385200e+01  3.9271839738957404e+01  3.9269036533600421e+01  3.9265327853281491e+01  3.9260436887243849e+01  3.9254007129763700e+01  3.9245580780496191e+01  3.9234571552389077e+01  3.9220230428505062e+01  3.9201602479732948e+01  3.9177472266609428e+01  3.9146294526902409e+01  3.9106105684327382e+01  3.9054410030218278e+01  3.8988031959573895e+01  3.8902921958386351e+01  3.8793898452497821e+01  3.8654299012096573e+01  3.8475500878803025e+01  3.8246249142826755e+01  3.7951695593719386e+01  3.7571992496950763e+01  3.7080185757610437e+01  3.6438979533646666e+01  3.5595643388674091e+01  3.4473811039834246e+01  3.2960059186719306e+01  3.0881991941792510e+01  2.7974308844845982e+01  2.3837143292232380e+01  1.7937003198823525e+01  9.8497768837937638e+00  0.0000000000000000e+00  0.0000000000000000e+00  7.2854284180697961e+00  1.3735870710021493e+01  1.8955792888242751e+01  2.2973880139010184e+01  2.6005769784790150e+01  2.8286459338620286e+01  3.0009838525159584e+01  3.1321383041769518e+01  3.2326836023988058e+01  3.3102661333086239e+01  3.3704502183103806e+01  3.4173298250219595e+01  3.4539544472407989e+01  3.4826229853324797e+01  3.5050874338615820e+01  3.5226955926819805e+01  3.5364924527049389e+01  3.5472933203089127e+01  3.5557373711015352e+01  3.5623274549829418e+01  3.5674600934570755e+01  3.5714483701444415e+01  3.5745395910907888e+01  3.5769290378351471e+01  3.5787707601906654e+01  3.5801860972134577e+01  3.5812704348389019e+01  3.5820985815742901e+01  3.5827290525635668e+01  3.5832074860454746e+01  3.5835693671761071e+01  3.5838421972918624e+01  3.5840472184872148e+01  3.5842007814978558e+01  3.5843154276688487e+01  3.5844007420965426e+01  3.5844640240432071e+01  3.5845108118415588e+01  3.5845452922964178e+01  3.5845706187227535e+01  3.5845891569797644e+01  3.5846026749695298e+01  3.5846124879055608e+01  3.5846195690902931e+01  3.5846246338632554e+01  3.5846282027028437e+01  3.5846306481084056e+01  3.5846322287916543e+01  3.5846331138126260e+01  3.5846333985582433e+01  3.5846331138403144e+01  3.5846322288482220e+01  3.5846306481961875e+01  3.5846282028252162e+01  3.5846246340244598e+01  3.5846195692951312e+01  3.5846124881588821e+01  3.5846026752754646e+01  3.5845891573405503e+01  3.5845706191370645e+01  3.5845452927569184e+01  3.5845108123315903e+01  3.5844640245322346e+01  3.5844007425341125e+01  3.5843154279766772e+01  3.5842007815596936e+01  3.5840472181360880e+01  3.5838421962943407e+01  3.5835693652132072e+01  3.5832074826900545e+01  3.5827290472541094e+01  3.5820985735852929e+01  3.5812704232483014e+01  3.5801860808681134e+01  3.5787707376712476e+01  3.5769290074223782e+01  3.5745395507355902e+01  3.5714483174450756e+01  3.5674600256467812e+01  3.5623273689318545e+01  3.5557372633365311e+01  3.5472931870545764e+01  3.5364922899477193e+01  3.5226953962578563e+01  3.5050871995651143e+01  3.4826227090418030e+01  3.4539541250492718e+01  3.4173294533626084e+01  3.3704497940544066e+01  3.3102656538142803e+01  3.2326830654821194e+01  3.1321377079714708e+01  3.0009831951856626e+01  2.8286452131320846e+01  2.6005761909591502e+01  2.2973871542131260e+01  1.8955783486303861e+01  1.3735860380723814e+01  7.2854169875312556e+00  0.0000000000000000e+00  0.0000000000000000e+00  5.6554096390647697e+00  1.0858868198465478e+01  1.5329436910677419e+01  1.8993311747482952e+01  2.1914126967217843e+01  2.4210824958734396e+01  2.6007239359783746e+01  2.7411240285357081e+01  2.8509958891564011e+01  2.9371482248113825e+01  3.0048339023140677e+01  3.0580948803939645e+01  3.1000488101546559e+01  3.1331115293271981e+01  3.1591649868311737e+01  3.1796827660255790e+01  3.1958239122488830e+01  3.2085034316650443e+01  3.2184456800072120e+01  3.2262251613946667e+01  3.2322979960835617e+01  3.2370264061591357e+01  3.2406979203945134e+01  3.2435405402962502e+01  3.2457347834909406e+01  3.2474232882652800e+01  3.2487184961566271e+01  3.2497088083871652e+01  3.2504635230202624e+01  3.2510367935530120e+01  3.2514707997027813e+01  3.2517982828588593e+01  3.2520445688941813e+01  3.2522291775570125e+01  3.2523670989322717e+01  3.2524698023691563e+01  3.2525460310166615e+01  3.2526024251045364e+01  3.2526440089146654e+01  3.2526745696695528e+01  3.2526969510565124e+01  3.2527132795962657e+01  3.2527251383808739e+01  3.2527336997041530e+01  3.2527398256690908e+01  3.2527441438792891e+01  3.2527471037193585e+01  3.2527490174290556e+01  3.2527500891146438e+01  3.2527504339638085e+01  3.2527500891898889e+01  3.2527490175843567e+01  3.2527471039644993e+01  3.2527441442293224e+01  3.2527398261447708e+01  3.2527337003324725e+01  3.2527251391956256e+01  3.2527132806385943e+01  3.2526969523753323e+01  3.2526745713217096e+01  3.2526440109646096e+01  3.2526024276233571e+01  3.2525460340800777e+01  3.2524698060541795e+01  3.2523671033120301e+01  3.2522291826932950e+01  3.2520445748270994e+01  3.2517982895930693e+01  3.2514708071896834e+01  3.2510368016684296e+01  3.2504635315372283e+01  3.2497088169437063e+01  3.2487185042187377e+01  3.2474232950858138e+01  3.2457347880656251e+01  3.2435405413188143e+01  3.2406979162136295e+01  3.2370263947406400e+01  3.2322979749821059e+01  3.2262251277394981e+01  3.2184456305068565e+01  3.2085033626354175e+01  3.1958238196683382e+01  3.1796826456186352e+01  3.1591648341800244e+01  3.1331113400065295e+01  3.1000485798808835e+01  3.0580946051749844e+01  3.0048335785801768e+01  2.9371478495028374e+01  2.8509954597386091e+01  2.7411235429101662e+01  2.6007233922576283e+01  2.4210818919935715e+01  2.1914120298797588e+01  1.8993304406764910e+01  1.5329428831825009e+01  1.0858859282784817e+01  5.6553997427577176e+00  0.0000000000000000e+00  0.0000000000000000e+00  4.5209908912259396e+00  8.7730654708488274e+00  1.2563308498192416e+01  1.5804331017263316e+01  1.8496413449760290e+01  2.0691251287937092e+01  2.2460827034846172e+01  2.3878557846696410e+01  2.5010524227801675e+01  2.5912668354391737e+01  2.6630875061294098e+01  2.7202178605144542e+01  2.7656243086024670e+01  2.8016758740935025e+01  2.8302634814933274e+01  2.8528973323587056e+01  2.8707847025851596e+01  2.8848915326164860e+01  2.8959910743922755e+01  2.9047023705045689e+01  2.9115207930799528e+01  2.9168423807850150e+01  2.9209833136747616e+01  2.9241955546814374e+01  2.9266794494361246e+01  2.9285938971507257e+01  2.9300645705477930e+01  2.9311905610873787e+01  2.9320497483900230e+01  2.9327031333704138e+01  2.9331983284715207e+01  2.9335723621136879e+01  2.9338539255897444e+01  2.9340651673762252e+01  2.9342231209145758e+01  2.9343408364141808e+01  2.9344282744547208e+01  2.9344930086030597e+01  2.9345407755139416e+01  2.9345759037433723e+01  2.9346016465187276e+01  2.9346204387752010e+01  2.9346340947129661e+01  2.9346439588079143e+01  2.9346510204978092e+01  2.9346560005587754e+01  2.9346594153923270e+01  2.9346616239822318e+01  2.9346628610842142e+01  2.9346632592204056e+01  2.9346628612115055e+01  2.9346616242455461e+01  2.9346594158094835e+01  2.9346560011574230e+01  2.9346510213164954e+01  2.9346439598974936e+01  2.9346340961382857e+01  2.9346204406170301e+01  2.9346016488758160e+01  2.9345759067344794e+01  2.9345407792796742e+01  2.9344930133072555e+01  2.9344282802849808e+01  2.9343408435811309e+01  2.9342231296493086e+01  2.9340651779252667e+01  2.9338539382067900e+01  2.9335723770472971e+01  2.9331983459479098e+01  2.9327031535705871e+01  2.9320497714204709e+01  2.9311905869439709e+01  2.9300645990727570e+01  2.9285939279832157e+01  2.9266794819574994e+01  2.9241955879573023e+01  2.9209833463967655e+01  2.9168424112164121e+01  2.9115208190099477e+01  2.9047023892172373e+01  2.8959910826563423e+01  2.8848915267020708e+01  2.8707846783128893e+01  2.8528972851846749e+01  2.8302634066307274e+01  2.8016757666677556e+01  2.7656241638318647e+01  2.7202176739026697e+01  2.6630872736503388e+01  2.5912665536889754e+01  2.5010520890669987e+01  2.3878553970093964e+01  2.2460822604725617e+01  2.0691246293282756e+01  1.8496407878238045e+01  1.5804324849343908e+01  1.2563301699955035e+01  8.7730579856946012e+00  4.5209826307303658e+00  0.0000000000000000e+00  0.0000000000000000e+00  3.6815119027373102e+00  7.1916322299451760e+00  1.0396424603683704e+01  1.3218745744917111e+01  1.5635824780765574e+01  1.7664058599709676e+01  1.9341779465267251e+01  2.0715917263784736e+01  2.1833751332791000e+01  2.2738695772750702e+01  2.3468644158520348e+01  2.4055714491523517e+01  2.4526659328869684e+01  2.4903530122304481e+01  2.5204387800567716e+01  2.5443965658461604e+01  2.5634249868058788e+01  2.5784971478654924e+01  2.5904016173970362e+01  2.5997762422732496e+01  2.6071359286526654e+01  2.6128954213159354e+01  2.6173879697028280e+01  2.6208806205702132e+01  2.6235867443877023e+01  2.6256762906688792e+01  2.6272841759326734e+01  2.6285171342090678e+01  2.6294593007531454e+01  2.6301767519473806e+01  2.6307211857695744e+01  2.6311328957093004e+01  2.6314431651089947e+01  2.6316761874340170e+01  2.6318506000703678e+01  2.6319807042515222e+01  2.6320774311238253e+01  2.6321491033800520e+01  2.6322020330102553e+01  2.6322409882812746e+01  2.6322695568476639e+01  2.6322904267344111e+01  2.6323056026586030e+01  2.6323165716353230e+01  2.6323244289229393e+01  2.6323299729987159e+01  2.6323337763253718e+01  2.6323362370913337e+01  2.6323376158114900e+01  2.6323380595976506e+01  2.6323376159937364e+01  2.6323362374686482e+01  2.6323337769239686e+01  2.6323299738593690e+01  2.6323244301027149e+01  2.6323165732098854e+01  2.6323056047250251e+01  2.6322904294145140e+01  2.6322695602916848e+01  2.6322409926718123e+01  2.6322020385662306e+01  2.6321491103604018e+01  2.6320774398305065e+01  2.6319807150312812e+01  2.6318506133146215e+01  2.6316762035760245e+01  2.6314431846173580e+01  2.6311329190767410e+01  2.6307212134958373e+01  2.6301767845151730e+01  2.6294593385960518e+01  2.6285171776706996e+01  2.6272842252167159e+01  2.6256763457803174e+01  2.6235868050663090e+01  2.6208806862184737e+01  2.6173880393116640e+01  2.6128954933928870e+01  2.6071360011584986e+01  2.5997763125741141e+01  2.5904016822400330e+01  2.5784972033856242e+01  2.5634250285718146e+01  2.5443965889503527e+01  2.5204387792526258e+01  2.4903529821150304e+01  2.4526658681223463e+01  2.4055713447125001e+01  2.3468642672757159e+01  2.2738693808989815e+01  2.1833748864209081e+01  2.0715914274372704e+01  1.9341775949700551e+01  1.7664054561839777e+01  1.5635820230603855e+01  1.3218740694137178e+01  1.0396419059843401e+01  7.1916261898357714e+00  3.6815053455518414e+00  0.0000000000000000e+00  0.0000000000000000e+00  3.0332150762774677e+00  5.9514790896443079e+00  8.6598624029624212e+00  1.1095664299213313e+01  1.3230147561767101e+01  1.5062513095360961e+01  1.6610824272213168e+01  1.7903486793781425e+01  1.8972888262124240e+01  1.9851349153889952e+01  2.0568896261379326e+01  2.1152258497753060e+01  2.1624594943271468e+01  2.2005618707649866e+01  2.2311908435101738e+01  2.2557288182443937e+01  2.2753212151039452e+01  2.2909123464329610e+01  2.3032774374074169e+01  2.3130504859340657e+01  2.3207481280473868e