<?xml version="1.0"?>
<VTKFile type="UnstructuredGrid"  version="0.1"  >
<UnstructuredGrid>
<Piece  NumberOfPoints="10201" NumberOfCells="20000">
<Points>
<DataArray  type="Float64"  NumberOfComponents="3"  format="ascii">0 0 0  0.01 0 0  0.02 0 0  0.03 0 0  0.04 0 0  0.05 0 0  0.06 0 0  0.07000000000000001 0 0  0.08 0 0  0.09 0 0  0.1 0 0  0.11 0 0  0.12 0 0  0.13 0 0  0.14 0 0  0.15 0 0  0.16 0 0  0.17 0 0  0.18 0 0  0.19 0 0  0.2 0 0  0.21 0 0  0.22 0 0  0.23 0 0  0.24 0 0  0.25 0 0  0.26 0 0  0.27 0 0  0.28 0 0  0.29 0 0  0.3 0 0  0.31 0 0  0.32 0 0  0.33 0 0  0.34 0 0  0.35 0 0  0.36 0 0  0.37 0 0  0.38 0 0  0.39 0 0  0.4 0 0  0.41 0 0  0.42 0 0  0.43 0 0  0.44 0 0  0.45 0 0  0.46 0 0  0.47 0 0  0.48 0 0  0.49 0 0  0.5 0 0  0.51 0 0  0.52 0 0  0.53 0 0  0.54 0 0  0.55 0 0  0.5600000000000001 0 0  0.57 0 0  0.58 0 0  0.59 0 0  0.6 0 0  0.61 0 0  0.62 0 0  0.63 0 0  0.64 0 0  0.65 0 0  0.66 0 0  0.67 0 0  0.68 0 0  0.6899999999999999 0 0  0.7 0 0  0.71 0 0  0.72 0 0  0.73 0 0  0.74 0 0  0.75 0 0  0.76 0 0  0.77 0 0  0.78 0 0  0.79 0 0  0.8 0 0  0.8100000000000001 0 0  0.82 0 0  0.83 0 0  0.84 0 0  0.85 0 0  0.86 0 0  0.87 0 0  0.88 0 0  0.89 0 0  0.9 0 0  0.91 0 0  0.92 0 0  0.93 0 0  0.9399999999999999 0 0  0.95 0 0  0.96 0 0  0.97 0 0  0.98 0 0  0.99 0 0  1 0 0  0 0.01 0  0.01 0.01 0  0.02 0.01 0  0.03 0.01 0  0.04 0.01 0  0.05 0.01 0  0.06 0.01 0  0.07000000000000001 0.01 0  0.08 0.01 0  0.09 0.01 0  0.1 0.01 0  0.11 0.01 0  0.12 0.01 0  0.13 0.01 0  0.14 0.01 0  0.15 0.01 0  0.16 0.01 0  0.17 0.01 0  0.18 0.01 0  0.19 0.01 0  0.2 0.01 0  0.21 0.01 0  0.22 0.01 0  0.23 0.01 0  0.24 0.01 0  0.25 0.01 0  0.26 0.01 0  0.27 0.01 0  0.28 0.01 0  0.29 0.01 0  0.3 0.01 0  0.31 0.01 0  0.32 0.01 0  0.33 0.01 0  0.34 0.01 0  0.35 0.01 0  0.36 0.01 0  0.37 0.01 0  0.38 0.01 0  0.39 0.01 0  0.4 0.01 0  0.41 0.01 0  0.42 0.01 0  0.43 0.01 0  0.44 0.01 0  0.45 0.01 0  0.46 0.01 0  0.47 0.01 0  0.48 0.01 0  0.49 0.01 0  0.5 0.01 0  0.51 0.01 0  0.52 0.01 0  0.53 0.01 0  0.54 0.01 0  0.55 0.01 0  0.5600000000000001 0.01 0  0.57 0.01 0  0.58 0.01 0  0.59 0.01 0  0.6 0.01 0  0.61 0.01 0  0.62 0.01 0  0.63 0.01 0  0.64 0.01 0  0.65 0.01 0  0.66 0.01 0  0.67 0.01 0  0.68 0.01 0  0.6899999999999999 0.01 0  0.7 0.01 0  0.71 0.01 0  0.72 0.01 0  0.73 0.01 0  0.74 0.01 0  0.75 0.01 0  0.76 0.01 0  0.77 0.01 0  0.78 0.01 0  0.79 0.01 0  0.8 0.01 0  0.8100000000000001 0.01 0  0.82 0.01 0  0.83 0.01 0  0.84 0.01 0  0.85 0.01 0  0.86 0.01 0  0.87 0.01 0  0.88 0.01 0  0.89 0.01 0  0.9 0.01 0  0.91 0.01 0  0.92 0.01 0  0.93 0.01 0  0.9399999999999999 0.01 0  0.95 0.01 0  0.96 0.01 0  0.97 0.01 0  0.98 0.01 0  0.99 0.01 0  1 0.01 0  0 0.02 0  0.01 0.02 0  0.02 0.02 0  0.03 0.02 0  0.04 0.02 0  0.05 0.02 0  0.06 0.02 0  0.07000000000000001 0.02 0  0.08 0.02 0  0.09 0.02 0  0.1 0.02 0  0.11 0.02 0  0.12 0.02 0  0.13 0.02 0  0.14 0.02 0  0.15 0.02 0  0.16 0.02 0  0.17 0.02 0  0.18 0.02 0  0.19 0.02 0  0.2 0.02 0  0.21 0.02 0  0.22 0.02 0  0.23 0.02 0  0.24 0.02 0  0.25 0.02 0  0.26 0.02 0  0.27 0.02 0  0.28 0.02 0  0.29 0.02 0  0.3 0.02 0  0.31 0.02 0  0.32 0.02 0  0.33 0.02 0  0.34 0.02 0  0.35 0.02 0  0.36 0.02 0  0.37 0.02 0  0.38 0.02 0  0.39 0.02 0  0.4 0.02 0  0.41 0.02 0  0.42 0.02 0  0.43 0.02 0  0.44 0.02 0  0.45 0.02 0  0.46 0.02 0  0.47 0.02 0  0.48 0.02 0  0.49 0.02 0  0.5 0.02 0  0.51 0.02 0  0.52 0.02 0  0.53 0.02 0  0.54 0.02 0  0.55 0.02 0  0.5600000000000001 0.02 0  0.57 0.02 0  0.58 0.02 0  0.59 0.02 0  0.6 0.02 0  0.61 0.02 0  0.62 0.02 0  0.63 0.02 0  0.64 0.02 0  0.65 0.02 0  0.66 0.02 0  0.67 0.02 0  0.68 0.02 0  0.6899999999999999 0.02 0  0.7 0.02 0  0.71 0.02 0  0.72 0.02 0  0.73 0.02 0  0.74 0.02 0  0.75 0.02 0  0.76 0.02 0  0.77 0.02 0  0.78 0.02 0  0.79 0.02 0  0.8 0.02 0  0.8100000000000001 0.02 0  0.82 0.02 0  0.83 0.02 0  0.84 0.02 0  0.85 0.02 0  0.86 0.02 0  0.87 0.02 0  0.88 0.02 0  0.89 0.02 0  0.9 0.02 0  0.91 0.02 0  0.92 0.02 0  0.93 0.02 0  0.9399999999999999 0.02 0  0.95 0.02 0  0.96 0.02 0  0.97 0.02 0  0.98 0.02 0  0.99 0.02 0  1 0.02 0  0 0.03 0  0.01 0.03 0  0.02 0.03 0  0.03 0.03 0  0.04 0.03 0  0.05 0.03 0  0.06 0.03 0  0.07000000000000001 0.03 0  0.08 0.03 0  0.09 0.03 0  0.1 0.03 0  0.11 0.03 0  0.12 0.03 0  0.13 0.03 0  0.14 0.03 0  0.15 0.03 0  0.16 0.03 0  0.17 0.03 0  0.18 0.03 0  0.19 0.03 0  0.2 0.03 0  0.21 0.03 0  0.22 0.03 0  0.23 0.03 0  0.24 0.03 0  0.25 0.03 0  0.26 0.03 0  0.27 0.03 0  0.28 0.03 0  0.29 0.03 0  0.3 0.03 0  0.31 0.03 0  0.32 0.03 0  0.33 0.03 0  0.34 0.03 0  0.35 0.03 0  0.36 0.03 0  0.37 0.03 0  0.38 0.03 0  0.39 0.03 0  0.4 0.03 0  0.41 0.03 0  0.42 0.03 0  0.43 0.03 0  0.44 0.03 0  0.45 0.03 0  0.46 0.03 0  0.47 0.03 0  0.48 0.03 0  0.49 0.03 0  0.5 0.03 0  0.51 0.03 0  0.52 0.03 0  0.53 0.03 0  0.54 0.03 0  0.55 0.03 0  0.5600000000000001 0.03 0  0.57 0.03 0  0.58 0.03 0  0.59 0.03 0  0.6 0.03 0  0.61 0.03 0  0.62 0.03 0  0.63 0.03 0  0.64 0.03 0  0.65 0.03 0  0.66 0.03 0  0.67 0.03 0  0.68 0.03 0  0.6899999999999999 0.03 0  0.7 0.03 0  0.71 0.03 0  0.72 0.03 0  0.73 0.03 0  0.74 0.03 0  0.75 0.03 0  0.76 0.03 0  0.77 0.03 0  0.78 0.03 0  0.79 0.03 0  0.8 0.03 0  0.8100000000000001 0.03 0  0.82 0.03 0  0.83 0.03 0  0.84 0.03 0  0.85 0.03 0  0.86 0.03 0  0.87 0.03 0  0.88 0.03 0  0.89 0.03 0  0.9 0.03 0  0.91 0.03 0  0.92 0.03 0  0.93 0.03 0  0.9399999999999999 0.03 0  0.95 0.03 0  0.96 0.03 0  0.97 0.03 0  0.98 0.03 0  0.99 0.03 0  1 0.03 0  0 0.04 0  0.01 0.04 0  0.02 0.04 0  0.03 0.04 0  0.04 0.04 0  0.05 0.04 0  0.06 0.04 0  0.07000000000000001 0.04 0  0.08 0.04 0  0.09 0.04 0  0.1 0.04 0  0.11 0.04 0  0.12 0.04 0  0.13 0.04 0  0.14 0.04 0  0.15 0.04 0  0.16 0.04 0  0.17 0.04 0  0.18 0.04 0  0.19 0.04 0  0.2 0.04 0  0.21 0.04 0  0.22 0.04 0  0.23 0.04 0  0.24 0.04 0  0.25 0.04 0  0.26 0.04 0  0.27 0.04 0  0.28 0.04 0  0.29 0.04 0  0.3 0.04 0  0.31 0.04 0  0.32 0.04 0  0.33 0.04 0  0.34 0.04 0  0.35 0.04 0  0.36 0.04 0  0.37 0.04 0  0.38 0.04 0  0.39 0.04 0  0.4 0.04 0  0.41 0.04 0  0.42 0.04 0  0.43 0.04 0  0.44 0.04 0  0.45 0.04 0  0.46 0.04 0  0.47 0.04 0  0.48 0.04 0  0.49 0.04 0  0.5 0.04 0  0.51 0.04 0  0.52 0.04 0  0.53 0.04 0  0.54 0.04 0  0.55 0.04 0  0.5600000000000001 0.04 0  0.57 0.04 0  0.58 0.04 0  0.59 0.04 0  0.6 0.04 0  0.61 0.04 0  0.62 0.04 0  0.63 0.04 0  0.64 0.04 0  0.65 0.04 0  0.66 0.04 0  0.67 0.04 0  0.68 0.04 0  0.6899999999999999 0.04 0  0.7 0.04 0  0.71 0.04 0  0.72 0.04 0  0.73 0.04 0  0.74 0.04 0  0.75 0.04 0  0.76 0.04 0  0.77 0.04 0  0.78 0.04 0  0.79 0.04 0  0.8 0.04 0  0.8100000000000001 0.04 0  0.82 0.04 0  0.83 0.04 0  0.84 0.04 0  0.85 0.04 0  0.86 0.04 0  0.87 0.04 0  0.88 0.04 0  0.89 0.04 0  0.9 0.04 0  0.91 0.04 0  0.92 0.04 0  0.93 0.04 0  0.9399999999999999 0.04 0  0.95 0.04 0  0.96 0.04 0  0.97 0.04 0  0.98 0.04 0  0.99 0.04 0  1 0.04 0  0 0.05 0  0.01 0.05 0  0.02 0.05 0  0.03 0.05 0  0.04 0.05 0  0.05 0.05 0  0.06 0.05 0  0.07000000000000001 0.05 0  0.08 0.05 0  0.09 0.05 0  0.1 0.05 0  0.11 0.05 0  0.12 0.05 0  0.13 0.05 0  0.14 0.05 0  0.15 0.05 0  0.16 0.05 0  0.17 0.05 0  0.18 0.05 0  0.19 0.05 0  0.2 0.05 0  0.21 0.05 0  0.22 0.05 0  0.23 0.05 0  0.24 0.05 0  0.25 0.05 0  0.26 0.05 0  0.27 0.05 0  0.28 0.05 0  0.29 0.05 0  0.3 0.05 0  0.31 0.05 0  0.32 0.05 0  0.33 0.05 0  0.34 0.05 0  0.35 0.05 0  0.36 0.05 0  0.37 0.05 0  0.38 0.05 0  0.39 0.05 0  0.4 0.05 0  0.41 0.05 0  0.42 0.05 0  0.43 0.05 0  0.44 0.05 0  0.45 0.05 0  0.46 0.05 0  0.47 0.05 0  0.48 0.05 0  0.49 0.05 0  0.5 0.05 0  0.51 0.05 0  0.52 0.05 0  0.53 0.05 0  0.54 0.05 0  0.55 0.05 0  0.5600000000000001 0.05 0  0.57 0.05 0  0.58 0.05 0  0.59 0.05 0  0.6 0.05 0  0.61 0.05 0  0.62 0.05 0  0.63 0.05 0  0.64 0.05 0  0.65 0.05 0  0.66 0.05 0  0.67 0.05 0  0.68 0.05 0  0.6899999999999999 0.05 0  0.7 0.05 0  0.71 0.05 0  0.72 0.05 0  0.73 0.05 0  0.74 0.05 0  0.75 0.05 0  0.76 0.05 0  0.77 0.05 0  0.78 0.05 0  0.79 0.05 0  0.8 0.05 0  0.8100000000000001 0.05 0  0.82 0.05 0  0.83 0.05 0  0.84 0.05 0  0.85 0.05 0  0.86 0.05 0  0.87 0.05 0  0.88 0.05 0  0.89 0.05 0  0.9 0.05 0  0.91 0.05 0  0.92 0.05 0  0.93 0.05 0  0.9399999999999999 0.05 0  0.95 0.05 0  0.96 0.05 0  0.97 0.05 0  0.98 0.05 0  0.99 0.05 0  1 0.05 0  0 0.06 0  0.01 0.06 0  0.02 0.06 0  0.03 0.06 0  0.04 0.06 0  0.05 0.06 0  0.06 0.06 0  0.07000000000000001 0.06 0  0.08 0.06 0  0.09 0.06 0  0.1 0.06 0  0.11 0.06 0  0.12 0.06 0  0.13 0.06 0  0.14 0.06 0  0.15 0.06 0  0.16 0.06 0  0.17 0.06 0  0.18 0.06 0  0.19 0.06 0  0.2 0.06 0  0.21 0.06 0  0.22 0.06 0  0.23 0.06 0  0.24 0.06 0  0.25 0.06 0  0.26 0.06 0  0.27 0.06 0  0.28 0.06 0  0.29 0.06 0  0.3 0.06 0  0.31 0.06 0  0.32 0.06 0  0.33 0.06 0  0.34 0.06 0  0.35 0.06 0  0.36 0.06 0  0.37 0.06 0  0.38 0.06 0  0.39 0.06 0  0.4 0.06 0  0.41 0.06 0  0.42 0.06 0  0.43 0.06 0  0.44 0.06 0  0.45 0.06 0  0.46 0.06 0  0.47 0.06 0  0.48 0.06 0  0.49 0.06 0  0.5 0.06 0  0.51 0.06 0  0.52 0.06 0  0.53 0.06 0  0.54 0.06 0  0.55 0.06 0  0.5600000000000001 0.06 0  0.57 0.06 0  0.58 0.06 0  0.59 0.06 0  0.6 0.06 0  0.61 0.06 0  0.62 0.06 0  0.63 0.06 0  0.64 0.06 0  0.65 0.06 0  0.66 0.06 0  0.67 0.06 0  0.68 0.06 0  0.6899999999999999 0.06 0  0.7 0.06 0  0.71 0.06 0  0.72 0.06 0  0.73 0.06 0  0.74 0.06 0  0.75 0.06 0  0.76 0.06 0  0.77 0.06 0  0.78 0.06 0  0.79 0.06 0  0.8 0.06 0  0.8100000000000001 0.06 0  0.82 0.06 0  0.83 0.06 0  0.84 0.06 0  0.85 0.06 0  0.86 0.06 0  0.87 0.06 0  0.88 0.06 0  0.89 0.06 0  0.9 0.06 0  0.91 0.06 0  0.92 0.06 0  0.93 0.06 0  0.9399999999999999 0.06 0  0.95 0.06 0  0.96 0.06 0  0.97 0.06 0  0.98 0.06 0  0.99 0.06 0  1 0.06 0  0 0.07000000000000001 0  0.01 0.07000000000000001 0  0.02 0.07000000000000001 0  0.03 0.07000000000000001 0  0.04 0.07000000000000001 0  0.05 0.07000000000000001 0  0.06 0.07000000000000001 0  0.07000000000000001 0.07000000000000001 0  0.08 0.07000000000000001 0  0.09 0.07000000000000001 0  0.1 0.07000000000000001 0  0.11 0.07000000000000001 0  0.12 0.07000000000000001 0  0.13 0.07000000000000001 0  0.14 0.07000000000000001 0  0.15 0.07000000000000001 0  0.16 0.07000000000000001 0  0.17 0.0700
[...]
<PointData  Scalars="f_17"> 
<DataArray  type="Float64"  Name="f_17"  format="ascii">0.0000000000000000e+00  5.0000000000000000e+01  5.0000000000000000e+01  5.0000000000000000e+01  5.0000000000000000e+01  5.0000000000000000e+01  5.0000000000000000e+01  5.0000000000000000e+01  5.0000000000000000e+01  5.0000000000000000e+01  5.0000000000000000e+01  5.0000000000000000e+01  5.0000000000000000e+01  5.0000000000000000e+01  5.0000000000000000e+01  5.0000000000000000e+01  5.0000000000000000e+01  5.0000000000000000e+01  5.0000000000000000e+01  5.0000000000000000e+01  5.0000000000000000e+01  5.0000000000000000e+01  5.0000000000000000e+01  5.0000000000000000e+01  5.0000000000000000e+01  5.0000000000000000e+01  5.0000000000000000e+01  5.0000000000000000e+01  5.0000000000000000e+01  5.0000000000000000e+01  5.0000000000000000e+01  5.0000000000000000e+01  5.0000000000000000e+01  5.0000000000000000e+01  5.0000000000000000e+01  5.0000000000000000e+01  5.0000000000000000e+01  5.0000000000000000e+01  5.0000000000000000e+01  5.0000000000000000e+01  5.0000000000000000e+01  5.0000000000000000e+01  5.0000000000000000e+01  5.0000000000000000e+01  5.0000000000000000e+01  5.0000000000000000e+01  5.0000000000000000e+01  5.0000000000000000e+01  5.0000000000000000e+01  5.0000000000000000e+01  5.0000000000000000e+01  5.0000000000000000e+01  5.0000000000000000e+01  5.0000000000000000e+01  5.0000000000000000e+01  5.0000000000000000e+01  5.0000000000000000e+01  5.0000000000000000e+01  5.0000000000000000e+01  5.0000000000000000e+01  5.0000000000000000e+01  5.0000000000000000e+01  5.0000000000000000e+01  5.0000000000000000e+01  5.0000000000000000e+01  5.0000000000000000e+01  5.0000000000000000e+01  5.0000000000000000e+01  5.0000000000000000e+01  5.0000000000000000e+01  5.0000000000000000e+01  5.0000000000000000e+01  5.0000000000000000e+01  5.0000000000000000e+01  5.0000000000000000e+01  5.0000000000000000e+01  5.0000000000000000e+01  5.0000000000000000e+01  5.0000000000000000e+01  5.0000000000000000e+01  5.0000000000000000e+01  5.0000000000000000e+01  5.0000000000000000e+01  5.0000000000000000e+01  5.0000000000000000e+01  5.0000000000000000e+01  5.0000000000000000e+01  5.0000000000000000e+01  5.0000000000000000e+01  5.0000000000000000e+01  5.0000000000000000e+01  5.0000000000000000e+01  5.0000000000000000e+01  5.0000000000000000e+01  5.0000000000000000e+01  5.0000000000000000e+01  5.0000000000000000e+01  5.0000000000000000e+01  5.0000000000000000e+01  5.0000000000000000e+01  0.0000000000000000e+00  0.0000000000000000e+00  2.4963692046786857e+01  3.5181063009099603e+01  3.9651599572074694e+01  4.2057778154754608e+01  4.3536186890207382e+01  4.4526848322900832e+01  4.5231487091988583e+01  4.5754690303077531e+01  4.6155855439389839e+01  4.6471143395444635e+01  4.6723803115744616e+01  4.6929452890863786e+01  4.7098970159406477e+01  4.7240162367356746e+01  4.7358778436651903e+01  4.7459145302908951e+01  4.7544582044936156e+01  4.7617677189085235e+01  4.7680479132476471e+01  4.7734629845813494e+01  4.7781460626247899e+01  4.7822061898060419e+01  4.7857334914827597e+01  4.7888030615212237e+01  4.7914779213224456e+01  4.7938113007471777e+01  4.7958484160959927e+01  4.7976278704410774e+01  4.7991827671460086e+01  4.8005416032415710e+01  4.8017289921449816e+01  4.8027662528435286e+01  4.8036718936577664e+01  4.8044620120704252e+01  4.8051506271777299e+01  4.8057499576196150e+01  4.8062706550427954e+01  4.8067220010103448e+01  4.8071120736231677e+01  4.8074478888405821e+01  4.8077355204867921e+01  4.8079802021430510e+01  4.8081864134999378e+01  4.8083579532438314e+01  4.8084980001477035e+01  4.8086091637070133e+01  4.8086935253894751e+01  4.8087526713403456e+01  4.8087877171912247e+01  4.8087993254524918e+01  4.8087877158199170e+01  4.8087526685890012e+01  4.8086935212406893e+01  4.8086091581348541e+01  4.8084979931178992e+01  4.8083579447140202e+01  4.8081864034200116e+01  4.8079801904555438e+01  4.8077355071273423e+01  4.8074478737384645e+01  4.8071120567018852e+01  4.8067219821883157e+01  4.8062706342340682e+01  4.8057499347346457e+01  4.8051506021242922e+01  4.8044619847545242e+01  4.8036718639845837e+01  4.8027662207184598e+01  4.8017289574747082e+01  4.8005415659351662e+01  4.7991827271160588e+01  4.7976278276048092e+01  4.7958483703764436e+01  4.7938112520743012e+01  4.7914778696342303e+01  4.7888030067647485e+01  4.7857334336151908e+01  4.7822061287955897e+01  4.7781459984515266e+01  4.7734629172379165e+01  4.7680478427398832e+01  4.7617676452558854e+01  4.7544581277294334e+01  4.7459144504624504e+01  4.7358777608335807e+01  4.7240161509753889e+01  4.7098969273389123e+01  4.6929451977421422e+01  4.6723802175969915e+01  4.6471142430514632e+01  4.6155854450539948e+01  4.5754689291565526e+01  4.5231486059041188e+01  4.4526847269624945e+01  4.3536185817420112e+01  4.2057777062584577e+01  3.9651598458780960e+01  3.5181061866556163e+01  2.4963690838275987e+01  0.0000000000000000e+00  0.0000000000000000e+00  1.4673871769679788e+01  2.4855101863874932e+01  3.1067822687766146e+01  3.4953242354750678e+01  3.7527626290941321e+01  3.9326469224218300e+01  4.0638724420635235e+01  4.1629136153805383e+01  4.2397025662353492e+01  4.3005319464899095e+01  4.3495620628389666e+01  4.3896450844568669e+01  4.4227979023608050e+01  4.4504852267686623e+01  4.4737955493468405e+01  4.4935541755746833e+01  4.5103979694935454e+01  4.5248260646162393e+01  4.5372350630721741e+01  4.5479439714767700e+01  4.5572121931357430e+01  4.5652527271936229e+01  4.5722419985664239e+01  4.5783272800831966e+01  4.5836323677738520e+01  4.5882619711777679e+01  4.5923051463239936e+01  4.5958380070469588e+01  4.5989258863089006e+01  4.6016250740606417e+01  4.6039842259200313e+01  4.6060455136259762e+01  4.6078455711737767e+01  4.6094162779390658e+01  4.6107854106985648e+01  4.6119771893795821e+01  4.6130127359959005e+01  4.6139104621131864e+01  4.6146863970119355e+01  4.6153544662467894e+01  4.6159267283676691e+01  4.6164135760417011e+01  4.6168239066015936e+01  4.6171652660735049e+01  4.6174439699509229e+01  4.6176652033388045e+01  4.6178331025616423e+01  4.6179508198849256e+01  4.6180205726206495e+01  4.6180436775587559e+01  4.6180205713730729e+01  4.6179508173816679e+01  4.6178330987865479e+01  4.6176651982678194e+01  4.6174439635522560e+01  4.6171652583078405e+01  4.6168238974224472e+01  4.6164135653957779e+01  4.6159267161952577e+01  4.6153544524822728e+01  4.6146863815843730e+01  4.6139104449469123e+01  4.6130127170111869e+01  4.6119771684934122e+01  4.6107853878253856e+01  4.6094162529916808e+01  4.6078455440642266e+01  4.6060454842664562e+01  4.6039841942238887e+01  4.6016250399433616e+01  4.5989258496891225e+01  4.5958379678474799e+01  4.5923051044727991e+01  4.5882619266090082e+01  4.5836323204287730e+01  4.5783272299110401e+01  4.5722419455252400e+01  4.5652526712510081e+01  4.5572121342694210e+01  4.5479439096750646e+01  4.5372349983343383e+01  4.5248259969525805e+01  4.5103978989253108e+01  4.4935541021337599e+01  4.4737954730751390e+01  4.4504851477171904e+01  4.4227978205883595e+01  4.3896450000282847e+01  4.3495619758228081e+01  4.3005318569553964e+01  4.2397024742482735e+01  4.1629135209976667e+01  4.0638723453244985e+01  3.9326468233365802e+01  3.7527625276216860e+01  3.4953241314849798e+01  3.1067821619795009e+01  2.4855100762711945e+01  1.4673870634846336e+01  0.0000000000000000e+00  0.0000000000000000e+00  1.0131220486597034e+01  1.8498318324007968e+01  2.4675231257569980e+01  2.9084596212341214e+01  3.2258517036550835e+01  3.4595582566504923e+01  3.6359946070104300e+01  3.7723002529351838e+01  3.8797331625144786e+01  3.9658619502411938e+01  4.0359081459589007e+01  4.0935660362093067e+01  4.1415112772718359e+01  4.1817234339990158e+01  4.2156954024633741e+01  4.2445725802546256e+01  4.2692474075153839e+01  4.2904249185284087e+01  4.3086690597756011e+01  4.3244359914460041e+01  4.3380984158712700e+01  4.3499636138029750e+01  4.3602869982845107e+01  4.3692824284183736e+01  4.3771301491768028e+01  4.3839829699365353e+01  4.3899711209824339e+01  4.3952061068369666e+01  4.3997837905816468e+01  4.4037868830060980e+01  4.4072869669374917e+01  4.4103461554164511e+01  4.4130184590561711e+01  4.4153509205779869e+01  4.4173845615051093e+01  4.4191551761504229e+01  4.4206940005225043e+01  4.4220282779988395e+01  4.4231817391413799e+01  4.4241750095390536e+01  4.4250259568185967e+01  4.4257499857940154e+01  4.4263602889937765e+01  4.4268680584135581e+01  4.4272826632147549e+01  4.4276117971658771e+01  4.4278615988598595e+01  4.4280367470988629e+01  4.4281405332909088e+01  4.4281749122260045e+01  4.4281405321742540e+01  4.4280367448579710e+01  4.4278615954796294e+01  4.4276117926237987e+01  4.4272826574810708e+01  4.4268680514514962e+01  4.4263602807598218e+01  4.4257499762382594e+01  4.4250259458851360e+01  4.4241749971664426e+01  4.4231817252631515e+01  4.4220282625440682e+01  4.4206939834164466e+01  4.4191551573151855e+01  4.4173845408604087e+01  4.4153508980419261e+01  4.4130184345460556e+01  4.4103461288496511e+01  4.4072869382323439e+01  4.4037868520828113e+01  4.3997837573632147e+01  4.3952060712500810e+01  4.3899710829583846e+01  4.3839829294120754e+01  4.3771301060949469e+01  4.3692823827291612e+01  4.3602869499456368e+01  4.3499635627803578e+01  4.3380983621394527e+01  4.3244359349883901e+01  4.3086690005845583e+01  4.2904248566051010e+01  4.2692473428693745e+01  4.2445725129032063e+01  4.2156953324305704e+01  4.1817233613141838e+01  4.1415112019678361e+01  4.0935659583201492e+01  4.0359080655166629e+01  3.9658618672721268e+01  3.8797330770339535e+01  3.7723001649410023e+01  3.6359945164738420e+01  3.4595581635038080e+01  3.2258516077746698e+01  2.9084595224195883e+01  2.4675230237194899e+01  1.8498317268194903e+01  1.0131219393642825e+01  0.0000000000000000e+00  0.0000000000000000e+00  7.6534260957902793e+00  1.4469832587267575e+01  2.0051679857719481e+01  2.4425730591513581e+01  2.7805812032652518e+01  3.0425255173525557e+01  3.2476452931088296e+01  3.4103574373891014e+01  3.5411260544366556e+01  3.6475085871527767e+01  3.7350018851952456e+01  3.8076535553487219e+01  3.8684869767354648e+01  3.9197938893262922e+01  3.9633364492586104e+01  4.0004880579231127e+01  4.0323327057599400e+01  4.0597359791225038e+01  4.0833964966309971e+01  4.1038836616646201e+01  4.1216657243068674e+01  4.1371308933279181e+01  4.1506034020605540e+01  4.1623558669962996e+01  4.1726188919107180e+01  4.1815886034811072e+01  4.1894326177340048e+01  4.1962948046488997e+01  4.2022991238389928e+01  4.2075527360052597e+01  4.2121485450595110e+01  4.2161672891121242e+01  4.2196792712275354e+01  4.2227458003785586e+01  4.2254203975476322e+01  4.2277498101219066e+01  4.2297748686663169e+01  4.2315312131491297e+01  4.2330499102348462e+01  4.2343579789782225e+01  4.2354788388733319e+01  4.2364326915250238e+01  4.2372368450596362e+01  4.2379059886570992e+01  4.2384524231756117e+01  4.2388862526814691e+01  4.2392155407344184e+01  4.2394464344688252e+01  4.2395832588181719e+01  4.2396285826251038e+01  4.2395832578386276e+01  4.2394464325025723e+01  4.2392155377671727e+01  4.2388862486919550e+01  4.2384524181356660e+01  4.2379059825319310e+01  4.2372368378080566e+01  4.2364326830997719e+01  4.2354788292214288e+01  4.2343579680414145e+01  4.2330498979500604e+01  4.2315311994490209e+01  4.2297748534798295e+01  4.2277497933749451e+01  4.2254203791637302e+01  4.2227457802796046e+01  4.2196792493345285e+01  4.2161672653459952e+01  4.2121485193419367e+01  4.2075527082595030e+01  4.2022990939907416e+01  4.1962947726271061e+01  4.1894325834716838e+01  4.1815885669161055e+01  4.1726188529864260e+01  4.1623558256622793e+01  4.1506033582730566e+01  4.1371308470503116e+01  4.1216656755098597e+01  4.1038836103263577e+01  4.0833964427369338e+01  4.0597359226650212e+01  4.0323326467377171e+01  4.0004879963401478e+01  3.9633363851229120e+01  3.9197938226481121e+01  3.8684869075250646e+01  3.8076534836135323e+01  3.7350018109363198e+01  3.6475085103603398e+01  3.5411259750845673e+01  3.4103573554279052e+01  3.2476452084570241e+01  3.0425254298859532e+01  2.7805811128048369e+01  2.4425729654527007e+01  2.0051678885244314e+01  1.4469831575719603e+01  7.6534250411588038e+00  0.0000000000000000e+00  0.0000000000000000e+00  6.1040613211993628e+00  1.1753700575167423e+01  1.6665545725081152e+01  2.0763457949101582e+01  2.4108872681229876e+01  2.6818707139437166e+01  2.9014975129283414e+01  3.0803957098315220e+01  3.2271442157516653e+01  3.3484432891115006e+01  3.4494633647037993e+01  3.5341895622609684e+01  3.6057072533286991e+01  3.6664230043551321e+01  3.7182305367214717e+01  3.7626339813378884e+01  3.8008392415608952e+01  3.8338219333266856e+01  3.8623782126317359e+01  3.8871630889069550e+01  3.9087195467260656e+01  3.9275008731259838e+01  3.9438879251373834e+01  3.9582025991626779e+01  3.9707184258706555e+01  3.9816689717923545e+01  3.9912545538279915e+01  3.9996476457661394e+01  4.0069972629114716e+01  4.0134325423556611e+01  4.0190656855023924e+01  4.0239943913505577e+01  4.0283038803147285e+01  4.0320685865532695e+01  4.0353535801021607e+01  4.0382157672802620e+01  4.0407049078909836e+01  4.0428644799947755e+01  4.0447324169467926e+01  4.0463417365945837e+01  4.0477210787184205e+01  4.0488951637501295e+01  4.0498851833539184e+01  4.0507091314654801e+01  4.0513820827618510e+01  4.0519164241950996e+01  4.0523220441062740e+01  4.0526064824924809e+01  4.0527750451897404e+01  4.0528308840247362e+01  4.0527750443525193e+01  4.0526064808111713e+01  4.0523220415672064e+01  4.0519164207778864e+01  4.0513820784395079e+01  4.0507091262046593e+01  4.0498851771151003e+01  4.0488951564879386e+01  4.0477210703819523e+01  4.0463417271277990e+01  4.0447324062889642e+01  4.0428644680809484e+01  4.0407048946525762e+01  4.0382157526456247e+01  4.0353535639972208e+01  4.0320685689022184e+01  4.0283038610407353e+01  4.0239943703765306e+01  4.0190656627517384e+01  4.0134325177530968e+01  4.0069972363837834e+01  3.9996476172429716e+01  3.9912545232425821e+01  3.9816689390822454e+01  3.9707183909783183e+01  3.9582025620360696e+01  3.9438878857303678e+01  3.9275008313986582e+01  3.9087195026448669e+01  3.8871630424446387e+01  3.8623781637670824e+01  3.8338218820439671e+01  3.8008391878490428e+01  3.7626339251893121e+01  3.7182304781305099e+01  3.6664229433160294e+01  3.6057071898330669e+01  3.5341894962946611e+01  3.4494632962430664e+01  3.3484432181182967e+01  3.2271441421680002e+01  3.0803956335726493e+01  2.9014974338747464e+01  2.6818706319320317e+01  2.4108871829365235e+01  2.0763457062706941e+01  1.6665544800706705e+01  1.1753699608639849e+01  6.1040603073820696e+00  0.0000000000000000e+00  0.0000000000000000e+00  5.0432599008279757e+00  9.8147397608507774e+00  1.4118707414147758e+01  1.7865068785491513e+01  2.1051555921095005e+01  2.3727516163962289e+01  2.5962820692285074e+01  2.7829040884023986e+01  2.9390697268433772e+01  3.0702469460490750e+01  3.1809280321832908e+01  3.2747498018526180e+01  3.3546404700388365e+01  3.4229575071754958e+01  3.4816046752056131e+01  3.5321267992024545e+01  3.5757847306404884e+01  3.6136139913626501e+01  3.6464704675374371e+01  3.6750660195816998e+01  3.6999963091953404e+01  3.7217626380201899e+01  3.7407891766725889e+01  3.7574366361635164e+01  3.7720131826674965e+01  3.7847832059146185e+01  3.7959744073929322e+01  3.8057835658146118e+01  3.8143812551497810e+01  3.8219157282973015e+01  3.8285161321368435e+01  3.8342951835608943e+01  3.8393514083446661e+01  3.8437710233146532e+01  3.8476295256862443e+01  3.8509930405105557e+01  3.8539194670396085e+01  3.8564594568397048e+01  3.8586572501648675e+01  3.8605513920729116e+01  3.8621753457410840e+01  3.8635580171976478e+01  3.8647242030607060e+01  3.8656949707350556e+01  3.8664879787585839e+01  3.8671177435311051e+01  3.8675958574360322e+01  3.8679311623275098e+01  3.8681298814603757e+01  3.8681957121535874e+01  3.8681298807697445e+01  3.8679311609395839e+01  3.8675958553375374e+01  3.8671177407022284e+01  3.8664879751731092e+01  3.8656949663605275e+01  3.8647241978586507e+01  3.8635580111238447e+01  3.8621753387458632e+01  3.8605513841015124e+01  3.8586572411578594e+01  3.8564594467334416e+01  3.8539194557667400e+01  3.8509930280005861e+01  3.8476295118661390e+01  3.8437710081094814e+01  3.8393513916782929e+01  3.8342951653566921e+01  3.8285161123184302e+01  3.8219157067893086e+01  3.8143812318785891e+01  3.8057835407090941e+01  3.7959743803851644e+01  3.7847831769405396e+01  3.7720131516674989e+01  3.7574366030829523e+01  3.7407891414621368e+01  3.7217626006361243e+01  3.6999962695995755e+01  3.6750659777416608e+01  3.6464704234257006e+01  3.6136139449562847e+01  3.5757846819201120e+01  3.5321267481509054e+01  3.4816046218062489e+01  3.4229574514100150e+01  3.3546404118845743e+01  3.2747497412792640e+01  3.1809279691489387e+01  3.0702468804954883e+01  2.9390696586904582e+01  2.7829040175417241e+01  2.5962819955160171e+01  2.3727515396442101e+01  2.1051555120782773e+01  1.7865067949388973e+01  1.4118706538570645e+01  9.8147388413124244e+00  5.0432589318303149e+00  0.0000000000000000e+00  0.0000000000000000e+00  4.2694478572071528e+00  8.3642978493817264e+00  1.2147462235333826e+01  1.5538769321615286e+01  1.8512594258825914e+01  2.1082702842127627e+01  2.3285059948415771e+01  2.5164523883290535e+01  2.6766620924800559e+01  2.8133343759128579e+01  2.9301499947688853e+01  3.0302451873967147e+01  3.1162514031207010e+01  3.1903597846728925e+01  3.2543897392088326e+01  3.3098523426508820e+01  3.3580052464271297e+01  3.3998986032882669e+01  3.4364127563619675e+01  3.4682888559767065e+01  3.4961536130126262e+01  3.5205392846567044e+01  3.5418998248695651e+01  3.5606239661039083e+01  3.5770458504967479e+01  3.5914537037569929e+01  3.6040969429935423e+01  3.6151920280689204e+01  3.6249273013637897e+01  3.6334670098686772e+01  3.6409546634709152e+01  3.6475158518519272e+01  3.6532606176851253e+01  3.6582854643506586e+01  3.6626750610050827e+01  3.6665036956624775e+01  3.6698365172605030e+01  3.6727305999591835e+01  3.6752358567313799e+01  3.6773958243251400e+01  3.6792483376545235e+01  3.6808261084075809e+01  3.6821572199918307e+01  3.6832655487446033e+01  3.6841711195211566e+01  3.6848904022585742e+01  3.6854365548362608e+01  3.6858196164629618e+01  3.6860466548747240e+01  3.6861218697925153e+01  3.6860466543340721e+01  3.6858196153750974e+01  3.6854365531880958e+01  3.6848904000305829e+01  3.6841711166874674e+01  3.6832655452731714e+01  3.6821572158446159e+01  3.6808261035408165e+01  3.6792483320189739e+01  3.6773958178664479e+01  3.6752358493904318e+01  3.6727305916725534e+01  3.6698365079609360e+01  3.6665036852794096e+01  3.6626750494652292e+01  3.6582854515786302e+01  3.6532606036040889e+01  3.6475158363843114e+01  3.6409546465391173e+01  3.6334669913958216e+01  3.6249272812744529e+01  3.6151920062898625e+01  3.6040969194544019e+01  3.5914536783909440e+01  3.5770458232410746e+01  3.5606239369004982e+01  3.5418997936652737e+01  3.5205392514035793e+01  3.4961535776679519e+01  3.4682888185028311e+01  3.4364127167259070e+01  3.3998985614609857e+01  3.3580052023825509e+01  3.3098522963644918e+01  3.2543896906559091e+01  3.1903597338262681e+01  3.1162513499480035e+01  3.0302451318570490e+01  2.9301499368089150e+01  2.8133343154621926e+01  2.6766620294459496e+01  2.5164523225903707e+01  2.3285059262421175e+01  2.1082702125540102e+01  1.8512593509161025e+01  1.5538768535809396e+01  1.2147461409655593e+01  8.3642969793234769e+00  4.2694469373413826e+00  0.0000000000000000e+00  0.0000000000000000e+00  3.6781821473116358e+00  7.2379183553037247e+00  1.0580846049221012e+01  1.3640963384981079e+01  1.6386420872769115e+01  1.8813548514726289e+01  2.0937824464807363e+01  2.2785389809219172e+01  2.4386712943673089e+01  2.5772555007109528e+01  2.6971747665560589e+01  2.8010183785741532e+01  2.8910531860425095e+01  2.9692339003809828e+01  3.0372315753503091e+01  3.0964684896305201e+01  3.1481532279066684e+01  3.1933130199284246e+01  3.2328222027487470e+01  3.2674266120316211e+01  3.2977641583414027e