<?xml version="1.0"?>
<VTKFile type="UnstructuredGrid"  version="0.1"  >
<UnstructuredGrid>
<Piece  NumberOfPoints="10201" NumberOfCells="20000">
<Points>
<DataArray  type="Float64"  NumberOfComponents="3"  format="ascii">0 0 0  0.01 0 0  0.02 0 0  0.03 0 0  0.04 0 0  0.05 0 0  0.06 0 0  0.07000000000000001 0 0  0.08 0 0  0.09 0 0  0.1 0 0  0.11 0 0  0.12 0 0  0.13 0 0  0.14 0 0  0.15 0 0  0.16 0 0  0.17 0 0  0.18 0 0  0.19 0 0  0.2 0 0  0.21 0 0  0.22 0 0  0.23 0 0  0.24 0 0  0.25 0 0  0.26 0 0  0.27 0 0  0.28 0 0  0.29 0 0  0.3 0 0  0.31 0 0  0.32 0 0  0.33 0 0  0.34 0 0  0.35 0 0  0.36 0 0  0.37 0 0  0.38 0 0  0.39 0 0  0.4 0 0  0.41 0 0  0.42 0 0  0.43 0 0  0.44 0 0  0.45 0 0  0.46 0 0  0.47 0 0  0.48 0 0  0.49 0 0  0.5 0 0  0.51 0 0  0.52 0 0  0.53 0 0  0.54 0 0  0.55 0 0  0.5600000000000001 0 0  0.57 0 0  0.58 0 0  0.59 0 0  0.6 0 0  0.61 0 0  0.62 0 0  0.63 0 0  0.64 0 0  0.65 0 0  0.66 0 0  0.67 0 0  0.68 0 0  0.6899999999999999 0 0  0.7 0 0  0.71 0 0  0.72 0 0  0.73 0 0  0.74 0 0  0.75 0 0  0.76 0 0  0.77 0 0  0.78 0 0  0.79 0 0  0.8 0 0  0.8100000000000001 0 0  0.82 0 0  0.83 0 0  0.84 0 0  0.85 0 0  0.86 0 0  0.87 0 0  0.88 0 0  0.89 0 0  0.9 0 0  0.91 0 0  0.92 0 0  0.93 0 0  0.9399999999999999 0 0  0.95 0 0  0.96 0 0  0.97 0 0  0.98 0 0  0.99 0 0  1 0 0  0 0.01 0  0.01 0.01 0  0.02 0.01 0  0.03 0.01 0  0.04 0.01 0  0.05 0.01 0  0.06 0.01 0  0.07000000000000001 0.01 0  0.08 0.01 0  0.09 0.01 0  0.1 0.01 0  0.11 0.01 0  0.12 0.01 0  0.13 0.01 0  0.14 0.01 0  0.15 0.01 0  0.16 0.01 0  0.17 0.01 0  0.18 0.01 0  0.19 0.01 0  0.2 0.01 0  0.21 0.01 0  0.22 0.01 0  0.23 0.01 0  0.24 0.01 0  0.25 0.01 0  0.26 0.01 0  0.27 0.01 0  0.28 0.01 0  0.29 0.01 0  0.3 0.01 0  0.31 0.01 0  0.32 0.01 0  0.33 0.01 0  0.34 0.01 0  0.35 0.01 0  0.36 0.01 0  0.37 0.01 0  0.38 0.01 0  0.39 0.01 0  0.4 0.01 0  0.41 0.01 0  0.42 0.01 0  0.43 0.01 0  0.44 0.01 0  0.45 0.01 0  0.46 0.01 0  0.47 0.01 0  0.48 0.01 0  0.49 0.01 0  0.5 0.01 0  0.51 0.01 0  0.52 0.01 0  0.53 0.01 0  0.54 0.01 0  0.55 0.01 0  0.5600000000000001 0.01 0  0.57 0.01 0  0.58 0.01 0  0.59 0.01 0  0.6 0.01 0  0.61 0.01 0  0.62 0.01 0  0.63 0.01 0  0.64 0.01 0  0.65 0.01 0  0.66 0.01 0  0.67 0.01 0  0.68 0.01 0  0.6899999999999999 0.01 0  0.7 0.01 0  0.71 0.01 0  0.72 0.01 0  0.73 0.01 0  0.74 0.01 0  0.75 0.01 0  0.76 0.01 0  0.77 0.01 0  0.78 0.01 0  0.79 0.01 0  0.8 0.01 0  0.8100000000000001 0.01 0  0.82 0.01 0  0.83 0.01 0  0.84 0.01 0  0.85 0.01 0  0.86 0.01 0  0.87 0.01 0  0.88 0.01 0  0.89 0.01 0  0.9 0.01 0  0.91 0.01 0  0.92 0.01 0  0.93 0.01 0  0.9399999999999999 0.01 0  0.95 0.01 0  0.96 0.01 0  0.97 0.01 0  0.98 0.01 0  0.99 0.01 0  1 0.01 0  0 0.02 0  0.01 0.02 0  0.02 0.02 0  0.03 0.02 0  0.04 0.02 0  0.05 0.02 0  0.06 0.02 0  0.07000000000000001 0.02 0  0.08 0.02 0  0.09 0.02 0  0.1 0.02 0  0.11 0.02 0  0.12 0.02 0  0.13 0.02 0  0.14 0.02 0  0.15 0.02 0  0.16 0.02 0  0.17 0.02 0  0.18 0.02 0  0.19 0.02 0  0.2 0.02 0  0.21 0.02 0  0.22 0.02 0  0.23 0.02 0  0.24 0.02 0  0.25 0.02 0  0.26 0.02 0  0.27 0.02 0  0.28 0.02 0  0.29 0.02 0  0.3 0.02 0  0.31 0.02 0  0.32 0.02 0  0.33 0.02 0  0.34 0.02 0  0.35 0.02 0  0.36 0.02 0  0.37 0.02 0  0.38 0.02 0  0.39 0.02 0  0.4 0.02 0  0.41 0.02 0  0.42 0.02 0  0.43 0.02 0  0.44 0.02 0  0.45 0.02 0  0.46 0.02 0  0.47 0.02 0  0.48 0.02 0  0.49 0.02 0  0.5 0.02 0  0.51 0.02 0  0.52 0.02 0  0.53 0.02 0  0.54 0.02 0  0.55 0.02 0  0.5600000000000001 0.02 0  0.57 0.02 0  0.58 0.02 0  0.59 0.02 0  0.6 0.02 0  0.61 0.02 0  0.62 0.02 0  0.63 0.02 0  0.64 0.02 0  0.65 0.02 0  0.66 0.02 0  0.67 0.02 0  0.68 0.02 0  0.6899999999999999 0.02 0  0.7 0.02 0  0.71 0.02 0  0.72 0.02 0  0.73 0.02 0  0.74 0.02 0  0.75 0.02 0  0.76 0.02 0  0.77 0.02 0  0.78 0.02 0  0.79 0.02 0  0.8 0.02 0  0.8100000000000001 0.02 0  0.82 0.02 0  0.83 0.02 0  0.84 0.02 0  0.85 0.02 0  0.86 0.02 0  0.87 0.02 0  0.88 0.02 0  0.89 0.02 0  0.9 0.02 0  0.91 0.02 0  0.92 0.02 0  0.93 0.02 0  0.9399999999999999 0.02 0  0.95 0.02 0  0.96 0.02 0  0.97 0.02 0  0.98 0.02 0  0.99 0.02 0  1 0.02 0  0 0.03 0  0.01 0.03 0  0.02 0.03 0  0.03 0.03 0  0.04 0.03 0  0.05 0.03 0  0.06 0.03 0  0.07000000000000001 0.03 0  0.08 0.03 0  0.09 0.03 0  0.1 0.03 0  0.11 0.03 0  0.12 0.03 0  0.13 0.03 0  0.14 0.03 0  0.15 0.03 0  0.16 0.03 0  0.17 0.03 0  0.18 0.03 0  0.19 0.03 0  0.2 0.03 0  0.21 0.03 0  0.22 0.03 0  0.23 0.03 0  0.24 0.03 0  0.25 0.03 0  0.26 0.03 0  0.27 0.03 0  0.28 0.03 0  0.29 0.03 0  0.3 0.03 0  0.31 0.03 0  0.32 0.03 0  0.33 0.03 0  0.34 0.03 0  0.35 0.03 0  0.36 0.03 0  0.37 0.03 0  0.38 0.03 0  0.39 0.03 0  0.4 0.03 0  0.41 0.03 0  0.42 0.03 0  0.43 0.03 0  0.44 0.03 0  0.45 0.03 0  0.46 0.03 0  0.47 0.03 0  0.48 0.03 0  0.49 0.03 0  0.5 0.03 0  0.51 0.03 0  0.52 0.03 0  0.53 0.03 0  0.54 0.03 0  0.55 0.03 0  0.5600000000000001 0.03 0  0.57 0.03 0  0.58 0.03 0  0.59 0.03 0  0.6 0.03 0  0.61 0.03 0  0.62 0.03 0  0.63 0.03 0  0.64 0.03 0  0.65 0.03 0  0.66 0.03 0  0.67 0.03 0  0.68 0.03 0  0.6899999999999999 0.03 0  0.7 0.03 0  0.71 0.03 0  0.72 0.03 0  0.73 0.03 0  0.74 0.03 0  0.75 0.03 0  0.76 0.03 0  0.77 0.03 0  0.78 0.03 0  0.79 0.03 0  0.8 0.03 0  0.8100000000000001 0.03 0  0.82 0.03 0  0.83 0.03 0  0.84 0.03 0  0.85 0.03 0  0.86 0.03 0  0.87 0.03 0  0.88 0.03 0  0.89 0.03 0  0.9 0.03 0  0.91 0.03 0  0.92 0.03 0  0.93 0.03 0  0.9399999999999999 0.03 0  0.95 0.03 0  0.96 0.03 0  0.97 0.03 0  0.98 0.03 0  0.99 0.03 0  1 0.03 0  0 0.04 0  0.01 0.04 0  0.02 0.04 0  0.03 0.04 0  0.04 0.04 0  0.05 0.04 0  0.06 0.04 0  0.07000000000000001 0.04 0  0.08 0.04 0  0.09 0.04 0  0.1 0.04 0  0.11 0.04 0  0.12 0.04 0  0.13 0.04 0  0.14 0.04 0  0.15 0.04 0  0.16 0.04 0  0.17 0.04 0  0.18 0.04 0  0.19 0.04 0  0.2 0.04 0  0.21 0.04 0  0.22 0.04 0  0.23 0.04 0  0.24 0.04 0  0.25 0.04 0  0.26 0.04 0  0.27 0.04 0  0.28 0.04 0  0.29 0.04 0  0.3 0.04 0  0.31 0.04 0  0.32 0.04 0  0.33 0.04 0  0.34 0.04 0  0.35 0.04 0  0.36 0.04 0  0.37 0.04 0  0.38 0.04 0  0.39 0.04 0  0.4 0.04 0  0.41 0.04 0  0.42 0.04 0  0.43 0.04 0  0.44 0.04 0  0.45 0.04 0  0.46 0.04 0  0.47 0.04 0  0.48 0.04 0  0.49 0.04 0  0.5 0.04 0  0.51 0.04 0  0.52 0.04 0  0.53 0.04 0  0.54 0.04 0  0.55 0.04 0  0.5600000000000001 0.04 0  0.57 0.04 0  0.58 0.04 0  0.59 0.04 0  0.6 0.04 0  0.61 0.04 0  0.62 0.04 0  0.63 0.04 0  0.64 0.04 0  0.65 0.04 0  0.66 0.04 0  0.67 0.04 0  0.68 0.04 0  0.6899999999999999 0.04 0  0.7 0.04 0  0.71 0.04 0  0.72 0.04 0  0.73 0.04 0  0.74 0.04 0  0.75 0.04 0  0.76 0.04 0  0.77 0.04 0  0.78 0.04 0  0.79 0.04 0  0.8 0.04 0  0.8100000000000001 0.04 0  0.82 0.04 0  0.83 0.04 0  0.84 0.04 0  0.85 0.04 0  0.86 0.04 0  0.87 0.04 0  0.88 0.04 0  0.89 0.04 0  0.9 0.04 0  0.91 0.04 0  0.92 0.04 0  0.93 0.04 0  0.9399999999999999 0.04 0  0.95 0.04 0  0.96 0.04 0  0.97 0.04 0  0.98 0.04 0  0.99 0.04 0  1 0.04 0  0 0.05 0  0.01 0.05 0  0.02 0.05 0  0.03 0.05 0  0.04 0.05 0  0.05 0.05 0  0.06 0.05 0  0.07000000000000001 0.05 0  0.08 0.05 0  0.09 0.05 0  0.1 0.05 0  0.11 0.05 0  0.12 0.05 0  0.13 0.05 0  0.14 0.05 0  0.15 0.05 0  0.16 0.05 0  0.17 0.05 0  0.18 0.05 0  0.19 0.05 0  0.2 0.05 0  0.21 0.05 0  0.22 0.05 0  0.23 0.05 0  0.24 0.05 0  0.25 0.05 0  0.26 0.05 0  0.27 0.05 0  0.28 0.05 0  0.29 0.05 0  0.3 0.05 0  0.31 0.05 0  0.32 0.05 0  0.33 0.05 0  0.34 0.05 0  0.35 0.05 0  0.36 0.05 0  0.37 0.05 0  0.38 0.05 0  0.39 0.05 0  0.4 0.05 0  0.41 0.05 0  0.42 0.05 0  0.43 0.05 0  0.44 0.05 0  0.45 0.05 0  0.46 0.05 0  0.47 0.05 0  0.48 0.05 0  0.49 0.05 0  0.5 0.05 0  0.51 0.05 0  0.52 0.05 0  0.53 0.05 0  0.54 0.05 0  0.55 0.05 0  0.5600000000000001 0.05 0  0.57 0.05 0  0.58 0.05 0  0.59 0.05 0  0.6 0.05 0  0.61 0.05 0  0.62 0.05 0  0.63 0.05 0  0.64 0.05 0  0.65 0.05 0  0.66 0.05 0  0.67 0.05 0  0.68 0.05 0  0.6899999999999999 0.05 0  0.7 0.05 0  0.71 0.05 0  0.72 0.05 0  0.73 0.05 0  0.74 0.05 0  0.75 0.05 0  0.76 0.05 0  0.77 0.05 0  0.78 0.05 0  0.79 0.05 0  0.8 0.05 0  0.8100000000000001 0.05 0  0.82 0.05 0  0.83 0.05 0  0.84 0.05 0  0.85 0.05 0  0.86 0.05 0  0.87 0.05 0  0.88 0.05 0  0.89 0.05 0  0.9 0.05 0  0.91 0.05 0  0.92 0.05 0  0.93 0.05 0  0.9399999999999999 0.05 0  0.95 0.05 0  0.96 0.05 0  0.97 0.05 0  0.98 0.05 0  0.99 0.05 0  1 0.05 0  0 0.06 0  0.01 0.06 0  0.02 0.06 0  0.03 0.06 0  0.04 0.06 0  0.05 0.06 0  0.06 0.06 0  0.07000000000000001 0.06 0  0.08 0.06 0  0.09 0.06 0  0.1 0.06 0  0.11 0.06 0  0.12 0.06 0  0.13 0.06 0  0.14 0.06 0  0.15 0.06 0  0.16 0.06 0  0.17 0.06 0  0.18 0.06 0  0.19 0.06 0  0.2 0.06 0  0.21 0.06 0  0.22 0.06 0  0.23 0.06 0  0.24 0.06 0  0.25 0.06 0  0.26 0.06 0  0.27 0.06 0  0.28 0.06 0  0.29 0.06 0  0.3 0.06 0  0.31 0.06 0  0.32 0.06 0  0.33 0.06 0  0.34 0.06 0  0.35 0.06 0  0.36 0.06 0  0.37 0.06 0  0.38 0.06 0  0.39 0.06 0  0.4 0.06 0  0.41 0.06 0  0.42 0.06 0  0.43 0.06 0  0.44 0.06 0  0.45 0.06 0  0.46 0.06 0  0.47 0.06 0  0.48 0.06 0  0.49 0.06 0  0.5 0.06 0  0.51 0.06 0  0.52 0.06 0  0.53 0.06 0  0.54 0.06 0  0.55 0.06 0  0.5600000000000001 0.06 0  0.57 0.06 0  0.58 0.06 0  0.59 0.06 0  0.6 0.06 0  0.61 0.06 0  0.62 0.06 0  0.63 0.06 0  0.64 0.06 0  0.65 0.06 0  0.66 0.06 0  0.67 0.06 0  0.68 0.06 0  0.6899999999999999 0.06 0  0.7 0.06 0  0.71 0.06 0  0.72 0.06 0  0.73 0.06 0  0.74 0.06 0  0.75 0.06 0  0.76 0.06 0  0.77 0.06 0  0.78 0.06 0  0.79 0.06 0  0.8 0.06 0  0.8100000000000001 0.06 0  0.82 0.06 0  0.83 0.06 0  0.84 0.06 0  0.85 0.06 0  0.86 0.06 0  0.87 0.06 0  0.88 0.06 0  0.89 0.06 0  0.9 0.06 0  0.91 0.06 0  0.92 0.06 0  0.93 0.06 0  0.9399999999999999 0.06 0  0.95 0.06 0  0.96 0.06 0  0.97 0.06 0  0.98 0.06 0  0.99 0.06 0  1 0.06 0  0 0.07000000000000001 0  0.01 0.07000000000000001 0  0.02 0.07000000000000001 0  0.03 0.07000000000000001 0  0.04 0.07000000000000001 0  0.05 0.07000000000000001 0  0.06 0.07000000000000001 0  0.07000000000000001 0.07000000000000001 0  0.08 0.07000000000000001 0  0.09 0.07000000000000001 0  0.1 0.07000000000000001 0  0.11 0.07000000000000001 0  0.12 0.07000000000000001 0  0.13 0.07000000000000001 0  0.14 0.07000000000000001 0  0.15 0.07000000000000001 0  0.16 0.07000000000000001 0  0.17 0.0700
[...]
<PointData  Scalars="f_17"> 
<DataArray  type="Float64"  Name="f_17"  format="ascii">0.0000000000000000e+00  5.0000000000000000e+01  5.0000000000000000e+01  5.0000000000000000e+01  5.0000000000000000e+01  5.0000000000000000e+01  5.0000000000000000e+01  5.0000000000000000e+01  5.0000000000000000e+01  5.0000000000000000e+01  5.0000000000000000e+01  5.0000000000000000e+01  5.0000000000000000e+01  5.0000000000000000e+01  5.0000000000000000e+01  5.0000000000000000e+01  5.0000000000000000e+01  5.0000000000000000e+01  5.0000000000000000e+01  5.0000000000000000e+01  5.0000000000000000e+01  5.0000000000000000e+01  5.0000000000000000e+01  5.0000000000000000e+01  5.0000000000000000e+01  5.0000000000000000e+01  5.0000000000000000e+01  5.0000000000000000e+01  5.0000000000000000e+01  5.0000000000000000e+01  5.0000000000000000e+01  5.0000000000000000e+01  5.0000000000000000e+01  5.0000000000000000e+01  5.0000000000000000e+01  5.0000000000000000e+01  5.0000000000000000e+01  5.0000000000000000e+01  5.0000000000000000e+01  5.0000000000000000e+01  5.0000000000000000e+01  5.0000000000000000e+01  5.0000000000000000e+01  5.0000000000000000e+01  5.0000000000000000e+01  5.0000000000000000e+01  5.0000000000000000e+01  5.0000000000000000e+01  5.0000000000000000e+01  5.0000000000000000e+01  5.0000000000000000e+01  5.0000000000000000e+01  5.0000000000000000e+01  5.0000000000000000e+01  5.0000000000000000e+01  5.0000000000000000e+01  5.0000000000000000e+01  5.0000000000000000e+01  5.0000000000000000e+01  5.0000000000000000e+01  5.0000000000000000e+01  5.0000000000000000e+01  5.0000000000000000e+01  5.0000000000000000e+01  5.0000000000000000e+01  5.0000000000000000e+01  5.0000000000000000e+01  5.0000000000000000e+01  5.0000000000000000e+01  5.0000000000000000e+01  5.0000000000000000e+01  5.0000000000000000e+01  5.0000000000000000e+01  5.0000000000000000e+01  5.0000000000000000e+01  5.0000000000000000e+01  5.0000000000000000e+01  5.0000000000000000e+01  5.0000000000000000e+01  5.0000000000000000e+01  5.0000000000000000e+01  5.0000000000000000e+01  5.0000000000000000e+01  5.0000000000000000e+01  5.0000000000000000e+01  5.0000000000000000e+01  5.0000000000000000e+01  5.0000000000000000e+01  5.0000000000000000e+01  5.0000000000000000e+01  5.0000000000000000e+01  5.0000000000000000e+01  5.0000000000000000e+01  5.0000000000000000e+01  5.0000000000000000e+01  5.0000000000000000e+01  5.0000000000000000e+01  5.0000000000000000e+01  5.0000000000000000e+01  5.0000000000000000e+01  0.0000000000000000e+00  0.0000000000000000e+00  2.4811353035381597e+01  3.4877526425323879e+01  3.9199150550245506e+01  4.1459763658496279e+01  4.2796925054976469e+01  4.3651514982178504e+01  4.4225985489930949e+01  4.4625510301463954e+01  4.4909928506146521e+01  4.5115699247055574e+01  4.5266233141084939e+01  4.5377184510273423e+01  4.5459355179531940e+01  4.5520381281875636e+01  4.5565761580905971e+01  4.5599510859557270e+01  4.5624590156688996e+01  4.5643198879539590e+01  4.5656978364417348e+01  4.5667156841520750e+01  4.5674654510941366e+01  4.5680160775909371e+01  4.5684191616681204e+01  4.5687132540247497e+01  4.5689270898795165e+01  4.5690820283007817e+01  4.5691938958088507e+01  4.5692743796372497e+01  4.5693320794108146e+01  4.5693732993536607e+01  4.5694026434158701e+01  4.5694234609014416e+01  4.5694381789468203e+01  4.5694485496164226e+01  4.5694558327942552e+01  4.5694609309861477e+01  4.5694644882532771e+01  4.5694669625088920e+01  4.5694686781225464e+01  4.5694698640315771e+01  4.5694706812345913e+01  4.5694712425404369e+01  4.5694716266927344e+01  4.5694718884261682e+01  4.5694720655906522e+01  4.5694721841676767e+01  4.5694722617725951e+01  4.5694723100664383e+01  4.5694723363743762e+01  4.5694723447138514e+01  4.5694723363629464e+01  4.5694723100419885e+01  4.5694722617317460e+01  4.5694721841048541e+01  4.5694720654974027e+01  4.5694718882901292e+01  4.5694716264962246e+01  4.5694712422584374e+01  4.5694706808319566e+01  4.5694698634592768e+01  4.5694686773125625e+01  4.5694669613673994e+01  4.5694644866515503e+01  4.5694609287486074e+01  4.5694558296828198e+01  4.5694485453102857e+01  4.5694381730164572e+01  4.5694234527756841e+01  4.5694026323406149e+01  4.5693732843407382e+01  4.5693320591755381e+01  4.5692743525233787e+01  4.5691938597000458e+01  4.5690819805180702e+01  4.5689270270655612e+01  4.5687131720168182e+01  4.5684190553636434e+01  4.5680159408118769e+01  4.5674652764591229e+01  4.5667154629684404e+01  4.5656975586328784e+01  4.5643195420402705e+01  4.5624585888226697e+01  4.5599505641511698e+01  4.5565755263681424e+01  4.5520373710467240e+01  4.5459346198792758e+01  4.5377173971433699e+01  4.5266220909252723e+01  4.5115685209193344e+01  4.4909912578742635e+01  4.4625492436803285e+01  4.4225965679484972e+01  4.3651493255066342e+01  4.2796901468238026e+01  4.1459738272335471e+01  3.9199123367891467e+01  3.4877497214395042e+01  2.4811320592214958e+01  0.0000000000000000e+00  0.0000000000000000e+00  1.4372646340671611e+01  2.4254920711672813e+01  3.0173190646279902e+01  3.3770759281390426e+01  3.6065808028786101e+01  3.7595524264874022e+01  3.8650297535300936e+01  3.9396031294308727e+01  3.9932920465769300e+01  4.0324482900099376e+01  4.0612643870740989e+01  4.0825999560220723e+01  4.0984573102720042e+01  4.1102676867562622e+01  4.1190705205744287e+01  4.1256297920228924e+01  4.1305119422946035e+01  4.1341395020651895e+01  4.1368288814452441e+01  4.1388175289641190e+01  4.1402837661975838e+01  4.1413614576719972e+01  4.1421509650010364e+01  4.1427273823701910e+01  4.1431467558001202e+01  4.1434507915052279e+01  4.1436704234822997e+01  4.1438285155025106e+01  4.1439419044673173e+01  4.1440229421091736e+01  4.1440806547823271e+01  4.1441216129779995e+01  4.1441505807672662e+01  4.1441709989297756e+01  4.1441853428595728e+01  4.1441953865701805e+01  4.1442023965898287e+01  4.1442072737444306e+01  4.1442106563825327e+01  4.1442129952021602e+01  4.1442146072581323e+01  4.1442157147745611e+01  4.1442164729158414e+01  4.1442169895670190e+01  4.1442173393520648e+01  4.1442175735081051e+01  4.1442177267816099e+01  4.1442178221787408e+01  4.1442178741539522e+01  4.1442178906360226e+01  4.1442178741482373e+01  4.1442178221664385e+01  4.1442177267608955e+01  4.1442175734759189e+01  4.1442173393037272e+01  4.1442169894955988e+01  4.1442164728113006e+01  4.1442157146225057e+01  4.1442146070380339e+01  4.1442129948849647e+01  4.1442106559273491e+01  4.1442072730940112e+01  4.1442023956644626e+01  4.1441953852595297e+01  4.1441853410117858e+01  4.1441709963372155e+01  4.1441505771477956e+01  4.1441216079508720e+01  4.1440806478374299e+01  4.1440229325682303e+01  4.1439418914355976e+01  4.1438284978097158e+01  4.1436703996113721e+01  4.1434507595082351e+01  4.1431467132011157e+01  4.1427273260560597e+01  4.1421508911027146e+01  4.1413613614406550e+01  4.1402836418827327e+01  4.1388173697036279e+01  4.1368286791804096e+01  4.1341392474969787e+01  4.1305116248995994e+01  4.1256294001485095e+01  4.1190700416315288e+01  4.1102671075225921e+01  4.0984566173106749e+01  4.0825991362046516e+01  4.0612634281769601e+01  4.0324471813255087e+01  3.9932907794478304e+01  3.9396016975750470e+01  3.8650281529757621e+01  3.7595506548690132e+01  3.6065788577327439e+01  3.3770738036300749e+01  3.0173167458519512e+01  2.4254895263533207e+01  1.4372618248838599e+01  0.0000000000000000e+00  0.0000000000000000e+00  9.6878866618517527e+00  1.7614984322885270e+01  2.3358496705329902e+01  2.7344131033281265e+01  3.0106800373029390e+01  3.2047576860505707e+01  3.3432722813817726e+01  3.4435337569045487e+01  3.5169287964041345e+01  3.5711134414258062e+01  3.6113572632503157e+01  3.6413663037535365e+01  3.6637956738919499e+01  3.6805766474602855e+01  3.6931309101905029e+01  3.7025145666748202e+01  3.7095173146961116e+01  3.7147322659893597e+01  3.7186060607810965e+01  3.7214754322217914e+01  3.7235942439490067e+01  3.7251536937049082e+01  3.7262975284327403e+01  3.7271335644661477e+01  3.7277424389574726e+01  3.7281842682700450e+01  3.7285037144026944e+01  3.7287338359311853e+01  3.7288990092120855e+01  3.7290171382794398e+01  3.7291013211584968e+01  3.7291611016700934e+01  3.7292034060868701e+01  3.7292332410386386e+01  3.7292542112683194e+01  3.7292689020426529e+01  3.7292791603389084e+01  3.7292863006787591e+01  3.7292912551327063e+01  3.7292946821555383e+01  3.7292970452056338e+01  3.7292986692889116e+01  3.7292997814463725e+01  3.7293005396114758e+01  3.7293010530741547e+01  3.7293013969036785e+01  3.7293016220271411e+01  3.7293017621750586e+01  3.7293018385455973e+01  3.7293018627690799e+01  3.7293018385476174e+01  3.7293017621792139e+01  3.7293016220336497e+01  3.7293013969128282e+01  3.7293010530862617e+01  3.7293005396267837e+01  3.7292997814648743e+01  3.7292986693100907e+01  3.7292970452279917e+01  3.7292946821758839e+01  3.7292912551450470e+01  3.7292863006726179e+01  3.7292791602968386e+01  3.7292689019365724e+01  3.7292542110542811e+01  3.7292332406493614e+01  3.7292034054213325e+01  3.7291611005792134e+01  3.7291013194256934e+01  3.7290171355947074e+01  3.7288990051379123e+01  3.7287338298585503e+01  3.7285037054953015e+01  3.7281842553950291e+01  3.7277424206012249e+01  3.7271335386346571e+01  3.7262974925370365e+01  3.7251536444340488e+01  3.7235941771355151e+01  3.7214753427075053e+01  3.7186059422951963e+01  3.7147321110540148e+01  3.7095171145788925e+01  3.7025143114094398e+01  3.6931305886875677e+01  3.6805762477263585e+01  3.6637951833667508e+01  3.6413657097599071e+01  3.6113565535288878e+01  3.5711126046953773e+01  3.5169278228502030e+01  3.4435326384533965e+01  3.3432710115683591e+01  3.2047562592383436e+01  3.0106784469740678e+01  2.7344113391882331e+01  2.3358477145078389e+01  1.7614962548461421e+01  9.6878622450535463e+00  0.0000000000000000e+00  0.0000000000000000e+00  7.0777555994410557e+00  1.3322798233003589e+01  1.8341796710237123e+01  2.2165477066558985e+01  2.5011295074457955e+01  2.7115792083383685e+01  2.8674090916026586e+01  2.9832570660328454e+01  3.0697546002293670e+01  3.1345733678904423e+01  3.1832737089590800e+01  3.2199199129140247e+01  3.2475103118926192e+01  3.2682756885874866e+01  3.2838875114545381e+01  3.2956049690018631e+01  3.3043802693012225e+01  3.3109351451628633e+01  3.3158171900000902e+01  3.3194418306481474e+01  3.3221239022125744e+01  3.3241015788704836e+01  3.3255546084956030e+01  3.3266182543899383e+01  3.3273939729157220e+01  3.3279575932462578e+01  3.3283655775794138e+01  3.3286598030226450e+01  3.3288712043917414e+01  3.3290225401197766e+01  3.3291304844942388e+01  3.3292072038515776e+01  3.3292615388896841e+01  3.3292998875642724e+01  3.3293268613858558e+01  3.3293457710253435e+01  3.3293589839614917e+01  3.3293681866747683e+01  3.3293745759857444e+01  3.3293789980549612e+01  3.3293820489090358e+01  3.3293841468184752e+01  3.3293855841750620e+01  3.3293865645020816e+01  3.3293872287228076e+01  3.3293876736893715e+01  3.3293879651400765e+01  3.3293881466349113e+01  3.3293882455595750e+01  3.3293882769432777e+01  3.3293882455710659e+01  3.3293881466591870e+01  3.3293879651798278e+01  3.3293876737489306e+01  3.3293872288084977e+01  3.3293865646227431e+01  3.3293855843427096e+01  3.3293841470491557e+01  3.3293820492238737e+01  3.3293789984814083e+01  3.3293745765589897e+01  3.3293681874393023e+01  3.3293589849726857e+01  3.3293457723508688e+01  3.3293268631066411e+01  3.3292998897745633e+01  3.3292615416955321e+01  3.3292072073668649e+01  3.3291304888330068e+01  3.3290225453832178e+01  3.3288712106479032e+01  3.3286598102763946e+01  3.3283655857298569e+01  3.3279576020286370e+01  3.3273939818247882e+01  3.3266182625822026e+01  3.3255546146688538e+01  3.3241015811207347e+01  3.3221238978711710e+01  3.3194418161054742e+01  3.3158171605269047e+01  3.3109350947456541e+01  3.3043801905134977e+01  3.2956048529380354e+01  3.2838873477557328e+01  3.2682754655873559e+01  3.2475100169042271e+01  3.2199195326638034e+01  3.1832732301495405e+01  3.1345727778389787e+01  3.0697538874873498e+01  2.9832562208407385e+01  2.8674081059900747e+01  2.7115780756450189e+01  2.5011282210433418e+01  2.2165462577380534e+01  1.8341780455605633e+01  1.3322779984565562e+01  7.0777349938716210e+00  0.0000000000000000e+00  0.0000000000000000e+00  5.4083803779616151e+00  1.0367504837338728e+01  1.4599041917814066e+01  1.8031606486416443e+01  2.0730989391934536e+01  2.2817965583999651e+01  2.4417834396202434e+01  2.5639542105392021e+01  2.6570903645650763e+01  2.7280312672332983e+01  2.7820257593873976e+01  2.8230812794905049e+01  2.8542554192909961e+01  2.8778837543594008e+01  2.8957531388731113e+01  2.9092323436468067e+01  2.9193705228939976e+01  2.9269717287870137e+01  2.9326516125518893e+01  2.9368808115291724e+01  2.9400183076029403e+01  2.9423371670059389e+01  2.9440444457986370e+01  2.9452965972433347e+01  2.9462113936257381e+01  2.9468771382230099e+01  2.9473597671389857e+01  2.9477083079189583e+01  2.9479590601600393e+01  2.9481387844931014e+01  2.9482671246072790e+01  2.9483584383790230e+01  2.9484231757369045e+01  2.9484689104760687e+01  2.9485011091858688e+01  2.9485237014881875e+01  2.9485395008856713e+01  2.9485505138718040e+01  2.9485581658984550e+01  2.9485634657953884e+01  2.9485671248565374e+01  2.9485696426991755e+01  2.9485713688832444e+01  2.9485725469243214e+01  2.9485733455673021e+01  2.9485738808685912e+01  2.9485742316529080e+01  2.9485744501816129e+01  2.9485745693262828e+01  2.9485746071329825e+01  2.9485745693486106e+01  2.9485744502288902e+01  2.9485742317306272e+01  2.9485738809856425e+01  2.9485733457367971e+01  2.9485725471647676e+01  2.9485713692201493e+01  2.9485696431671485e+01  2.9485671255019732e+01  2.9485634666798560e+01  2.9485581671028719e+01  2.9485505155014859e+01  2.9485395030762717e+01  2.9485237044125292e+01  2.9485011130614478e+01  2.9484689155729736e+01  2.9484231823854945e+01  2.9483584469765056e+01  2.9482671356217633e+01  2.9481387984632722e+01  2.9479590776878684e+01  2.9477083296522704e+01  2.9473597937398747e+01  2.9468771703176809e+01  2.9462114317308327e+01  2.9452966416639750e+01  2.9440444964942536e+01  2.9423372234216117e+01  2.9400183684670552e+01  2.9368808746226055e+01  2.9326516744599164e+01  2.9269717846523783e+01  2.9193705661975979e+01  2.9092323660501290e+01  2.8957531301622538e+01  2.8778837025320616e+01  2.8542553108226816e+01  2.8230810998016853e+01  2.7820254935076189e+01  2.7280309006205176e+01  2.6570898839907318e+01  2.5639536048966384e+01  2.4417827004660428e+01  2.2817956800090830e+01  2.0730979179201274e+01  1.8031594814481718e+01  1.4599028739152367e+01  1.0367490055995939e+01  5.4083638096125339e+00  0.0000000000000000e+00  0.0000000000000000e+00  4.2419159918592015e+00  8.2179472661406070e+00  1.1738107949983865e+01  1.4717729949043692e+01  1.7159521233709945e+01  1.9117242320174970e+01  2.0664530006861529e+01  2.1876019271404459e+01  2.2818568330123263e+01  2.3548473497527429e+01  2.4111583702941953e+01  2.4544553795962429e+01  2.4876380186468825e+01  2.5129856755601100e+01  2.5322827861787726e+01  2.5469219505755234e+01  2.5579869488268567e+01  2.5663188594970475e+01  2.5725684521637721e+01  2.5772376032373927e+01  2.5807119896743913e+01  2.5832868651814039e+01  2.5851873501517680e+01  2.5865843687194882e+01  2.5876071322132962e+01  2.5883528847208712e+01  2.5888944819150176e+01  2.5892862596662901e+01  2.5895685574192182e+01  2.5897711877634155e+01  2.5899160843194743e+01  2.5900193121527145e+01  2.5900925862552565e+01  2.5901444124943865e+01  2.5901809404442968e+01  2.5902065975803779e+01  2.5902245584945867e+01  2.5902370903162108e+01  2.5902458057524075e+01  2.5902518475626977e+01  2.5902560224102974e+01  2.5902588975274174e+01  2.5902608701978789e+01  2.5902622174585115e+01  2.5902631314625715e+01  2.5902637444809784e+01  2.5902641464224985e+01  2.5902643969386986e+01  2.5902645335708112e+01  2.5902645769369727e+01  2.5902645336049169e+01  2.5902643970109661e+01  2.5902641465414298e+01  2.5902637446603610e+01  2.5902631317227900e+01  2.5902622178284329e+01  2.5902608707174235e+01  2.5902588982509766e+01  2.5902560234111355e+01  2.5902518489385841e+01  2.5902458076326059e+01  2.5902370928701846e+01  2.5902245619423891e+01  2.5902066022049993e+01  2.5901809466058232e+01  2.5901444206458077e+01  2.5900925969593075e+01  2.5900193260988242e+01  2.5899161023392175e+01  2.5897712108422471e+01  2.5895685867012517e+01  2.5892862964480539e+01  2.5888945276229592e+01  2.5883529408665186e+01  2.5876072003191997e+01  2.5865844502089832e+01  2.5851874461961920e+01  2.5832869765003469e+01  2.5807121162879756e+01  2.5772377441750635e+01  2.5725686051414808e+01  2.5663190205842476e+01  2.5579871121352831e+01  2.5469221080127021e+01  2.5322829273180698e+01  2.5129857876836915e+01  2.4876380870147983e+01  2.4544553879810657e+01  2.4111583017934880e+01  2.3548471878505737e+01  2.2818565628081078e+01  2.1876015366046005e+01  2.0664524817483741e+01  1.9117235812597421e+01  1.7159513421006427e+01  1.4717720884349486e+01  1.1738097710614145e+01  8.2179359294907712e+00  4.2419036052788810e+00  0.0000000000000000e+00  0.0000000000000000e+00  3.3782201642363026e+00  6.5883260295231514e+00  9.4995453719006981e+00  1.2037677010468251e+01  1.4182577170394508e+01  1.5952880272987933e+01  1.7388714404866622e+01  1.8538335426401371e+01  1.9449874339619459e+01  2.0167139796546319e+01  2.0727998314480764e+01  2.1164168817078227e+01  2.1501691819935807e+01  2.1761657720696082e+01  2.1960982059447872e+01  2.2113130306562518e+01  2.2228754795222393e+01  2.2316235819482728e+01  2.2382132133721306e+01  2.2431551170390762e+01  2.2468450498251801e+01  2.2495881534774057e+01  2.2516185359499286e+01  2.2531149140912479e+01  2.2542130400416799e+01  2.2550155173863846e+01  2.2555995114658614e+01  2.2560227708819742e+01  2.2563283028695309e+01  2.2565479823348372e+01  2.2567053215441060e+01  2.2568175833516658e+01  2.2568973843022359e+01  2.2569539038582942e+01  2.2569937914408179e+01  2.2570218430784752e+01  2.2570415034824247e+01  2.2570552366363874e+01  2.2570647979368811e+01  2.2570714330389496e+01  2.2570760224364662e+01  2.2570791860789484e+01  2.2570813587060144e+01  2.2570828438260499e+01  2.2570838521836631e+01  2.2570845289952722e+01  2.2570849730607780e+01  2.2570852499840029e+01  2.2570854010796264e+01  2.2570854490491353e+01  2.2570854011260128e+01  2.2570852500822976e+01  2.2570849732225916e+01  2.2570845292394381e+01  2.2570838525380363e+01  2.2570828443301263e+01  2.2570813594144735e+01  2.2570791870663896e+01  2.2570760238035422e+01  2.2570714349202110e+01  2.2570648005106527e+01  2.2570552401369760e+01  2.2570415082149914e+01  2.2570218494367580e+01  2.2569937999278004e+01  2.2569539151096375e+01  2.2568973991119581e+01  2.2568176026989804e+01  2.2567053466196171e+01  2.2565480145634783e+01  2.2563283439263529e+01  2.2560228226957776e+01  2.2555995762042137e+01  2.2550155974143273e+01  2.2542131378453949e+01  2.2531150321575751e+01  2.2516186765932257e+01  2.2495883186073176e+01  2.2468452406529167e+01  2.2431553337262361e+01  2.2382134546351441e+01  2.2316238446430443e+01  2.2228757582469925e+01  2.2113133174243313e+01  2.1960984899913168e+01  2.1761660398630237e+01  2.1501694175219580e+01  2.1164170670965508e+01  2.0727999479370546e+01  2.0167140089187530e+01  1.9449873597004700e+01  1.8538333522950850e+01  1.7388711268889487e+01  1.5952875899984702e+01  1.4182571630696488e+01  1.2037670449120466e+01  9.4995379996371696e+00  6.5883181051661399e+00  3.3782119710290539e+00  0.0000000000000000e+00  0.0000000000000000e+00  2.7136744418939953e+00  5.3158295230365109e+00  7.7148469155818349e+00  9.8511079818170568e+00  1.1698630132587645e+01  1.3258963661634834e+01  1.4552061448510917e+01  1.5607728997916501e+01  1.6459258725149958e+01  1.7139398148290724e+01  1.7678159641312508e+01  1.8101867319633268e+01  1.8432946181489594e+01  1.8690112351506933e+01  1.8888751922919219e+01  1.9041365466435376e+01  1.9158011848777672e+01  1.9246718591567472e+01  1.9313845034363773e+01  1.9364394889902687e+01  1.9402280083721191e