<?xml version="1.0"?>
<VTKFile type="UnstructuredGrid"  version="0.1"  >
<UnstructuredGrid>
<Piece  NumberOfPoints="10201" NumberOfCells="20000">
<Points>
<DataArray  type="Float64"  NumberOfComponents="3"  format="ascii">0 0 0  0.01 0 0  0.02 0 0  0.03 0 0  0.04 0 0  0.05 0 0  0.06 0 0  0.07000000000000001 0 0  0.08 0 0  0.09 0 0  0.1 0 0  0.11 0 0  0.12 0 0  0.13 0 0  0.14 0 0  0.15 0 0  0.16 0 0  0.17 0 0  0.18 0 0  0.19 0 0  0.2 0 0  0.21 0 0  0.22 0 0  0.23 0 0  0.24 0 0  0.25 0 0  0.26 0 0  0.27 0 0  0.28 0 0  0.29 0 0  0.3 0 0  0.31 0 0  0.32 0 0  0.33 0 0  0.34 0 0  0.35 0 0  0.36 0 0  0.37 0 0  0.38 0 0  0.39 0 0  0.4 0 0  0.41 0 0  0.42 0 0  0.43 0 0  0.44 0 0  0.45 0 0  0.46 0 0  0.47 0 0  0.48 0 0  0.49 0 0  0.5 0 0  0.51 0 0  0.52 0 0  0.53 0 0  0.54 0 0  0.55 0 0  0.5600000000000001 0 0  0.57 0 0  0.58 0 0  0.59 0 0  0.6 0 0  0.61 0 0  0.62 0 0  0.63 0 0  0.64 0 0  0.65 0 0  0.66 0 0  0.67 0 0  0.68 0 0  0.6899999999999999 0 0  0.7 0 0  0.71 0 0  0.72 0 0  0.73 0 0  0.74 0 0  0.75 0 0  0.76 0 0  0.77 0 0  0.78 0 0  0.79 0 0  0.8 0 0  0.8100000000000001 0 0  0.82 0 0  0.83 0 0  0.84 0 0  0.85 0 0  0.86 0 0  0.87 0 0  0.88 0 0  0.89 0 0  0.9 0 0  0.91 0 0  0.92 0 0  0.93 0 0  0.9399999999999999 0 0  0.95 0 0  0.96 0 0  0.97 0 0  0.98 0 0  0.99 0 0  1 0 0  0 0.01 0  0.01 0.01 0  0.02 0.01 0  0.03 0.01 0  0.04 0.01 0  0.05 0.01 0  0.06 0.01 0  0.07000000000000001 0.01 0  0.08 0.01 0  0.09 0.01 0  0.1 0.01 0  0.11 0.01 0  0.12 0.01 0  0.13 0.01 0  0.14 0.01 0  0.15 0.01 0  0.16 0.01 0  0.17 0.01 0  0.18 0.01 0  0.19 0.01 0  0.2 0.01 0  0.21 0.01 0  0.22 0.01 0  0.23 0.01 0  0.24 0.01 0  0.25 0.01 0  0.26 0.01 0  0.27 0.01 0  0.28 0.01 0  0.29 0.01 0  0.3 0.01 0  0.31 0.01 0  0.32 0.01 0  0.33 0.01 0  0.34 0.01 0  0.35 0.01 0  0.36 0.01 0  0.37 0.01 0  0.38 0.01 0  0.39 0.01 0  0.4 0.01 0  0.41 0.01 0  0.42 0.01 0  0.43 0.01 0  0.44 0.01 0  0.45 0.01 0  0.46 0.01 0  0.47 0.01 0  0.48 0.01 0  0.49 0.01 0  0.5 0.01 0  0.51 0.01 0  0.52 0.01 0  0.53 0.01 0  0.54 0.01 0  0.55 0.01 0  0.5600000000000001 0.01 0  0.57 0.01 0  0.58 0.01 0  0.59 0.01 0  0.6 0.01 0  0.61 0.01 0  0.62 0.01 0  0.63 0.01 0  0.64 0.01 0  0.65 0.01 0  0.66 0.01 0  0.67 0.01 0  0.68 0.01 0  0.6899999999999999 0.01 0  0.7 0.01 0  0.71 0.01 0  0.72 0.01 0  0.73 0.01 0  0.74 0.01 0  0.75 0.01 0  0.76 0.01 0  0.77 0.01 0  0.78 0.01 0  0.79 0.01 0  0.8 0.01 0  0.8100000000000001 0.01 0  0.82 0.01 0  0.83 0.01 0  0.84 0.01 0  0.85 0.01 0  0.86 0.01 0  0.87 0.01 0  0.88 0.01 0  0.89 0.01 0  0.9 0.01 0  0.91 0.01 0  0.92 0.01 0  0.93 0.01 0  0.9399999999999999 0.01 0  0.95 0.01 0  0.96 0.01 0  0.97 0.01 0  0.98 0.01 0  0.99 0.01 0  1 0.01 0  0 0.02 0  0.01 0.02 0  0.02 0.02 0  0.03 0.02 0  0.04 0.02 0  0.05 0.02 0  0.06 0.02 0  0.07000000000000001 0.02 0  0.08 0.02 0  0.09 0.02 0  0.1 0.02 0  0.11 0.02 0  0.12 0.02 0  0.13 0.02 0  0.14 0.02 0  0.15 0.02 0  0.16 0.02 0  0.17 0.02 0  0.18 0.02 0  0.19 0.02 0  0.2 0.02 0  0.21 0.02 0  0.22 0.02 0  0.23 0.02 0  0.24 0.02 0  0.25 0.02 0  0.26 0.02 0  0.27 0.02 0  0.28 0.02 0  0.29 0.02 0  0.3 0.02 0  0.31 0.02 0  0.32 0.02 0  0.33 0.02 0  0.34 0.02 0  0.35 0.02 0  0.36 0.02 0  0.37 0.02 0  0.38 0.02 0  0.39 0.02 0  0.4 0.02 0  0.41 0.02 0  0.42 0.02 0  0.43 0.02 0  0.44 0.02 0  0.45 0.02 0  0.46 0.02 0  0.47 0.02 0  0.48 0.02 0  0.49 0.02 0  0.5 0.02 0  0.51 0.02 0  0.52 0.02 0  0.53 0.02 0  0.54 0.02 0  0.55 0.02 0  0.5600000000000001 0.02 0  0.57 0.02 0  0.58 0.02 0  0.59 0.02 0  0.6 0.02 0  0.61 0.02 0  0.62 0.02 0  0.63 0.02 0  0.64 0.02 0  0.65 0.02 0  0.66 0.02 0  0.67 0.02 0  0.68 0.02 0  0.6899999999999999 0.02 0  0.7 0.02 0  0.71 0.02 0  0.72 0.02 0  0.73 0.02 0  0.74 0.02 0  0.75 0.02 0  0.76 0.02 0  0.77 0.02 0  0.78 0.02 0  0.79 0.02 0  0.8 0.02 0  0.8100000000000001 0.02 0  0.82 0.02 0  0.83 0.02 0  0.84 0.02 0  0.85 0.02 0  0.86 0.02 0  0.87 0.02 0  0.88 0.02 0  0.89 0.02 0  0.9 0.02 0  0.91 0.02 0  0.92 0.02 0  0.93 0.02 0  0.9399999999999999 0.02 0  0.95 0.02 0  0.96 0.02 0  0.97 0.02 0  0.98 0.02 0  0.99 0.02 0  1 0.02 0  0 0.03 0  0.01 0.03 0  0.02 0.03 0  0.03 0.03 0  0.04 0.03 0  0.05 0.03 0  0.06 0.03 0  0.07000000000000001 0.03 0  0.08 0.03 0  0.09 0.03 0  0.1 0.03 0  0.11 0.03 0  0.12 0.03 0  0.13 0.03 0  0.14 0.03 0  0.15 0.03 0  0.16 0.03 0  0.17 0.03 0  0.18 0.03 0  0.19 0.03 0  0.2 0.03 0  0.21 0.03 0  0.22 0.03 0  0.23 0.03 0  0.24 0.03 0  0.25 0.03 0  0.26 0.03 0  0.27 0.03 0  0.28 0.03 0  0.29 0.03 0  0.3 0.03 0  0.31 0.03 0  0.32 0.03 0  0.33 0.03 0  0.34 0.03 0  0.35 0.03 0  0.36 0.03 0  0.37 0.03 0  0.38 0.03 0  0.39 0.03 0  0.4 0.03 0  0.41 0.03 0  0.42 0.03 0  0.43 0.03 0  0.44 0.03 0  0.45 0.03 0  0.46 0.03 0  0.47 0.03 0  0.48 0.03 0  0.49 0.03 0  0.5 0.03 0  0.51 0.03 0  0.52 0.03 0  0.53 0.03 0  0.54 0.03 0  0.55 0.03 0  0.5600000000000001 0.03 0  0.57 0.03 0  0.58 0.03 0  0.59 0.03 0  0.6 0.03 0  0.61 0.03 0  0.62 0.03 0  0.63 0.03 0  0.64 0.03 0  0.65 0.03 0  0.66 0.03 0  0.67 0.03 0  0.68 0.03 0  0.6899999999999999 0.03 0  0.7 0.03 0  0.71 0.03 0  0.72 0.03 0  0.73 0.03 0  0.74 0.03 0  0.75 0.03 0  0.76 0.03 0  0.77 0.03 0  0.78 0.03 0  0.79 0.03 0  0.8 0.03 0  0.8100000000000001 0.03 0  0.82 0.03 0  0.83 0.03 0  0.84 0.03 0  0.85 0.03 0  0.86 0.03 0  0.87 0.03 0  0.88 0.03 0  0.89 0.03 0  0.9 0.03 0  0.91 0.03 0  0.92 0.03 0  0.93 0.03 0  0.9399999999999999 0.03 0  0.95 0.03 0  0.96 0.03 0  0.97 0.03 0  0.98 0.03 0  0.99 0.03 0  1 0.03 0  0 0.04 0  0.01 0.04 0  0.02 0.04 0  0.03 0.04 0  0.04 0.04 0  0.05 0.04 0  0.06 0.04 0  0.07000000000000001 0.04 0  0.08 0.04 0  0.09 0.04 0  0.1 0.04 0  0.11 0.04 0  0.12 0.04 0  0.13 0.04 0  0.14 0.04 0  0.15 0.04 0  0.16 0.04 0  0.17 0.04 0  0.18 0.04 0  0.19 0.04 0  0.2 0.04 0  0.21 0.04 0  0.22 0.04 0  0.23 0.04 0  0.24 0.04 0  0.25 0.04 0  0.26 0.04 0  0.27 0.04 0  0.28 0.04 0  0.29 0.04 0  0.3 0.04 0  0.31 0.04 0  0.32 0.04 0  0.33 0.04 0  0.34 0.04 0  0.35 0.04 0  0.36 0.04 0  0.37 0.04 0  0.38 0.04 0  0.39 0.04 0  0.4 0.04 0  0.41 0.04 0  0.42 0.04 0  0.43 0.04 0  0.44 0.04 0  0.45 0.04 0  0.46 0.04 0  0.47 0.04 0  0.48 0.04 0  0.49 0.04 0  0.5 0.04 0  0.51 0.04 0  0.52 0.04 0  0.53 0.04 0  0.54 0.04 0  0.55 0.04 0  0.5600000000000001 0.04 0  0.57 0.04 0  0.58 0.04 0  0.59 0.04 0  0.6 0.04 0  0.61 0.04 0  0.62 0.04 0  0.63 0.04 0  0.64 0.04 0  0.65 0.04 0  0.66 0.04 0  0.67 0.04 0  0.68 0.04 0  0.6899999999999999 0.04 0  0.7 0.04 0  0.71 0.04 0  0.72 0.04 0  0.73 0.04 0  0.74 0.04 0  0.75 0.04 0  0.76 0.04 0  0.77 0.04 0  0.78 0.04 0  0.79 0.04 0  0.8 0.04 0  0.8100000000000001 0.04 0  0.82 0.04 0  0.83 0.04 0  0.84 0.04 0  0.85 0.04 0  0.86 0.04 0  0.87 0.04 0  0.88 0.04 0  0.89 0.04 0  0.9 0.04 0  0.91 0.04 0  0.92 0.04 0  0.93 0.04 0  0.9399999999999999 0.04 0  0.95 0.04 0  0.96 0.04 0  0.97 0.04 0  0.98 0.04 0  0.99 0.04 0  1 0.04 0  0 0.05 0  0.01 0.05 0  0.02 0.05 0  0.03 0.05 0  0.04 0.05 0  0.05 0.05 0  0.06 0.05 0  0.07000000000000001 0.05 0  0.08 0.05 0  0.09 0.05 0  0.1 0.05 0  0.11 0.05 0  0.12 0.05 0  0.13 0.05 0  0.14 0.05 0  0.15 0.05 0  0.16 0.05 0  0.17 0.05 0  0.18 0.05 0  0.19 0.05 0  0.2 0.05 0  0.21 0.05 0  0.22 0.05 0  0.23 0.05 0  0.24 0.05 0  0.25 0.05 0  0.26 0.05 0  0.27 0.05 0  0.28 0.05 0  0.29 0.05 0  0.3 0.05 0  0.31 0.05 0  0.32 0.05 0  0.33 0.05 0  0.34 0.05 0  0.35 0.05 0  0.36 0.05 0  0.37 0.05 0  0.38 0.05 0  0.39 0.05 0  0.4 0.05 0  0.41 0.05 0  0.42 0.05 0  0.43 0.05 0  0.44 0.05 0  0.45 0.05 0  0.46 0.05 0  0.47 0.05 0  0.48 0.05 0  0.49 0.05 0  0.5 0.05 0  0.51 0.05 0  0.52 0.05 0  0.53 0.05 0  0.54 0.05 0  0.55 0.05 0  0.5600000000000001 0.05 0  0.57 0.05 0  0.58 0.05 0  0.59 0.05 0  0.6 0.05 0  0.61 0.05 0  0.62 0.05 0  0.63 0.05 0  0.64 0.05 0  0.65 0.05 0  0.66 0.05 0  0.67 0.05 0  0.68 0.05 0  0.6899999999999999 0.05 0  0.7 0.05 0  0.71 0.05 0  0.72 0.05 0  0.73 0.05 0  0.74 0.05 0  0.75 0.05 0  0.76 0.05 0  0.77 0.05 0  0.78 0.05 0  0.79 0.05 0  0.8 0.05 0  0.8100000000000001 0.05 0  0.82 0.05 0  0.83 0.05 0  0.84 0.05 0  0.85 0.05 0  0.86 0.05 0  0.87 0.05 0  0.88 0.05 0  0.89 0.05 0  0.9 0.05 0  0.91 0.05 0  0.92 0.05 0  0.93 0.05 0  0.9399999999999999 0.05 0  0.95 0.05 0  0.96 0.05 0  0.97 0.05 0  0.98 0.05 0  0.99 0.05 0  1 0.05 0  0 0.06 0  0.01 0.06 0  0.02 0.06 0  0.03 0.06 0  0.04 0.06 0  0.05 0.06 0  0.06 0.06 0  0.07000000000000001 0.06 0  0.08 0.06 0  0.09 0.06 0  0.1 0.06 0  0.11 0.06 0  0.12 0.06 0  0.13 0.06 0  0.14 0.06 0  0.15 0.06 0  0.16 0.06 0  0.17 0.06 0  0.18 0.06 0  0.19 0.06 0  0.2 0.06 0  0.21 0.06 0  0.22 0.06 0  0.23 0.06 0  0.24 0.06 0  0.25 0.06 0  0.26 0.06 0  0.27 0.06 0  0.28 0.06 0  0.29 0.06 0  0.3 0.06 0  0.31 0.06 0  0.32 0.06 0  0.33 0.06 0  0.34 0.06 0  0.35 0.06 0  0.36 0.06 0  0.37 0.06 0  0.38 0.06 0  0.39 0.06 0  0.4 0.06 0  0.41 0.06 0  0.42 0.06 0  0.43 0.06 0  0.44 0.06 0  0.45 0.06 0  0.46 0.06 0  0.47 0.06 0  0.48 0.06 0  0.49 0.06 0  0.5 0.06 0  0.51 0.06 0  0.52 0.06 0  0.53 0.06 0  0.54 0.06 0  0.55 0.06 0  0.5600000000000001 0.06 0  0.57 0.06 0  0.58 0.06 0  0.59 0.06 0  0.6 0.06 0  0.61 0.06 0  0.62 0.06 0  0.63 0.06 0  0.64 0.06 0  0.65 0.06 0  0.66 0.06 0  0.67 0.06 0  0.68 0.06 0  0.6899999999999999 0.06 0  0.7 0.06 0  0.71 0.06 0  0.72 0.06 0  0.73 0.06 0  0.74 0.06 0  0.75 0.06 0  0.76 0.06 0  0.77 0.06 0  0.78 0.06 0  0.79 0.06 0  0.8 0.06 0  0.8100000000000001 0.06 0  0.82 0.06 0  0.83 0.06 0  0.84 0.06 0  0.85 0.06 0  0.86 0.06 0  0.87 0.06 0  0.88 0.06 0  0.89 0.06 0  0.9 0.06 0  0.91 0.06 0  0.92 0.06 0  0.93 0.06 0  0.9399999999999999 0.06 0  0.95 0.06 0  0.96 0.06 0  0.97 0.06 0  0.98 0.06 0  0.99 0.06 0  1 0.06 0  0 0.07000000000000001 0  0.01 0.07000000000000001 0  0.02 0.07000000000000001 0  0.03 0.07000000000000001 0  0.04 0.07000000000000001 0  0.05 0.07000000000000001 0  0.06 0.07000000000000001 0  0.07000000000000001 0.07000000000000001 0  0.08 0.07000000000000001 0  0.09 0.07000000000000001 0  0.1 0.07000000000000001 0  0.11 0.07000000000000001 0  0.12 0.07000000000000001 0  0.13 0.07000000000000001 0  0.14 0.07000000000000001 0  0.15 0.07000000000000001 0  0.16 0.07000000000000001 0  0.17 0.0700
[...]
<PointData  Scalars="f_17"> 
<DataArray  type="Float64"  Name="f_17"  format="ascii">0.0000000000000000e+00  5.0000000000000000e+01  5.0000000000000000e+01  5.0000000000000000e+01  5.0000000000000000e+01  5.0000000000000000e+01  5.0000000000000000e+01  5.0000000000000000e+01  5.0000000000000000e+01  5.0000000000000000e+01  5.0000000000000000e+01  5.0000000000000000e+01  5.0000000000000000e+01  5.0000000000000000e+01  5.0000000000000000e+01  5.0000000000000000e+01  5.0000000000000000e+01  5.0000000000000000e+01  5.0000000000000000e+01  5.0000000000000000e+01  5.0000000000000000e+01  5.0000000000000000e+01  5.0000000000000000e+01  5.0000000000000000e+01  5.0000000000000000e+01  5.0000000000000000e+01  5.0000000000000000e+01  5.0000000000000000e+01  5.0000000000000000e+01  5.0000000000000000e+01  5.0000000000000000e+01  5.0000000000000000e+01  5.0000000000000000e+01  5.0000000000000000e+01  5.0000000000000000e+01  5.0000000000000000e+01  5.0000000000000000e+01  5.0000000000000000e+01  5.0000000000000000e+01  5.0000000000000000e+01  5.0000000000000000e+01  5.0000000000000000e+01  5.0000000000000000e+01  5.0000000000000000e+01  5.0000000000000000e+01  5.0000000000000000e+01  5.0000000000000000e+01  5.0000000000000000e+01  5.0000000000000000e+01  5.0000000000000000e+01  5.0000000000000000e+01  5.0000000000000000e+01  5.0000000000000000e+01  5.0000000000000000e+01  5.0000000000000000e+01  5.0000000000000000e+01  5.0000000000000000e+01  5.0000000000000000e+01  5.0000000000000000e+01  5.0000000000000000e+01  5.0000000000000000e+01  5.0000000000000000e+01  5.0000000000000000e+01  5.0000000000000000e+01  5.0000000000000000e+01  5.0000000000000000e+01  5.0000000000000000e+01  5.0000000000000000e+01  5.0000000000000000e+01  5.0000000000000000e+01  5.0000000000000000e+01  5.0000000000000000e+01  5.0000000000000000e+01  5.0000000000000000e+01  5.0000000000000000e+01  5.0000000000000000e+01  5.0000000000000000e+01  5.0000000000000000e+01  5.0000000000000000e+01  5.0000000000000000e+01  5.0000000000000000e+01  5.0000000000000000e+01  5.0000000000000000e+01  5.0000000000000000e+01  5.0000000000000000e+01  5.0000000000000000e+01  5.0000000000000000e+01  5.0000000000000000e+01  5.0000000000000000e+01  5.0000000000000000e+01  5.0000000000000000e+01  5.0000000000000000e+01  5.0000000000000000e+01  5.0000000000000000e+01  5.0000000000000000e+01  5.0000000000000000e+01  5.0000000000000000e+01  5.0000000000000000e+01  5.0000000000000000e+01  5.0000000000000000e+01  0.0000000000000000e+00  0.0000000000000000e+00  2.3739317578664501e+01  3.2811910147986495e+01  3.6265904956789718e+01  3.7798996601987241e+01  3.8543086071768592e+01  3.8923738611593585e+01  3.9124859655626047e+01  3.9233350094864612e+01  3.9292688738485481e+01  3.9325455116464369e+01  3.9343671050148295e+01  3.9353847409777373e+01  3.9359552848052921e+01  3.9362760173959266e+01  3.9364566795371779e+01  3.9365585972776955e+01  3.9366161589197347e+01  3.9366486974506103e+01  3.9366671031681527e+01  3.9366775197934054e+01  3.9366834172642896e+01  3.9366867571059387e+01  3.9366886488968902e+01  3.9366897206149090e+01  3.9366903278074759e+01  3.9366906718353427e+01  3.9366908667606381e+01  3.9366909772038603e+01  3.9366910397783464e+01  3.9366910752299447e+01  3.9366910953138792e+01  3.9366911066909786e+01  3.9366911131353540e+01  3.9366911167853644e+01  3.9366911188524938e+01  3.9366911200230760e+01  3.9366911206858944e+01  3.9366911210611612e+01  3.9366911212736085e+01  3.9366911213938664e+01  3.9366911214619293e+01  3.9366911215004485e+01  3.9366911215222444e+01  3.9366911215345716e+01  3.9366911215415342e+01  3.9366911215454621e+01  3.9366911215476549e+01  3.9366911215488436e+01  3.9366911215494284e+01  3.9366911215496046e+01  3.9366911215494291e+01  3.9366911215488429e+01  3.9366911215476499e+01  3.9366911215454586e+01  3.9366911215415300e+01  3.9366911215345596e+01  3.9366911215222203e+01  3.9366911215004137e+01  3.9366911214618703e+01  3.9366911213937613e+01  3.9366911212734244e+01  3.9366911210608457e+01  3.9366911206853416e+01  3.9366911200221097e+01  3.9366911188508034e+01  3.9366911167824036e+01  3.9366911131301727e+01  3.9366911066819064e+01  3.9366910952980028e+01  3.9366910752021880e+01  3.9366910397298554e+01  3.9366909771191928e+01  3.9366908666129348e+01  3.9366906715779024e+01  3.9366903273591774e+01  3.9366897198350195e+01  3.9366886475416273e+01  3.9366867547536096e+01  3.9366834131866611e+01  3.9366775127351296e+01  3.9366670909697007e+01  3.9366486764054414e+01  3.9366161226823905e+01  3.9365585350166675e+01  3.9364565728247420e+01  3.9362758350003780e+01  3.9359549740275462e+01  3.9353842133508884e+01  3.9343662129173097e+01  3.9325440104791411e+01  3.9292663616694639e+01  3.9233308321205563e+01  3.9124790697582362e+01  3.8923625696914421e+01  3.8542902700532061e+01  3.7798700692678345e+01  3.6265426814677888e+01  3.2811119880243709e+01  2.3737929882504798e+01  0.0000000000000000e+00  0.0000000000000000e+00  1.2458161742037783e+01  2.0550433194090211e+01  2.4886058543683262e+01  2.7141227001421182e+01  2.8331220356179990e+01  2.8970670482522380e+01  2.9319403063911274e+01  2.9511684912701682e+01  2.9618548328282969e+01  2.9678280458550255e+01  2.9711807311456493e+01  2.9730682723430263e+01  2.9741333187454561e+01  2.9747352600446547e+01  2.9750758765807447e+01  2.9752687906125860e+01  2.9753781216989484e+01  2.9754401123086421e+01  2.9754752723981376e+01  2.9754952190182539e+01  2.9755065364531447e+01  2.9755129582738679e+01  2.9755166022722960e+01  2.9755186699896353e+01  2.9755198432220055e+01  2.9755205088730452e+01  2.9755208865070109e+01  2.9755211007227189e+01  2.9755212222245508e+01  2.9755212911313713e+01  2.9755213302052908e+01  2.9755213523594563e+01  2.9755213649187741e+01  2.9755213720377757e+01  2.9755213760724946e+01  2.9755213783588790e+01  2.9755213796543483e+01  2.9755213803882597e+01  2.9755213808039890e+01  2.9755213810394487e+01  2.9755213811727842e+01  2.9755213812482822e+01  2.9755213812910220e+01  2.9755213813152054e+01  2.9755213813288758e+01  2.9755213813365849e+01  2.9755213813408904e+01  2.9755213813432292e+01  2.9755213813443763e+01  2.9755213813447217e+01  2.9755213813443785e+01  2.9755213813432288e+01  2.9755213813408893e+01  2.9755213813365827e+01  2.9755213813288773e+01  2.9755213813152061e+01  2.9755213812910220e+01  2.9755213812482893e+01  2.9755213811728016e+01  2.9755213810394757e+01  2.9755213808040406e+01  2.9755213803883599e+01  2.9755213796545252e+01  2.9755213783591991e+01  2.9755213760730605e+01  2.9755213720387758e+01  2.9755213649205427e+01  2.9755213523625617e+01  2.9755213302107581e+01  2.9755212911409892e+01  2.9755212222414549e+01  2.9755211007524050e+01  2.9755208865591122e+01  2.9755205089644299e+01  2.9755198433821580e+01  2.9755186702700509e+01  2.9755166027627876e+01  2.9755129591308222e+01  2.9755065379483870e+01  2.9754952216232098e+01  2.9754752769283282e+01  2.9754401201704447e+01  2.9753781353084886e+01  2.9752688141012563e+01  2.9750759169711163e+01  2.9747353291828148e+01  2.9741334364134055e+01  2.9730684711245839e+01  2.9711810636800685e+01  2.9678285947677114e+01  2.9618557220069526e+01  2.9511698920172275e+01  2.9319424178493371e+01  2.8970699958046200e+01  2.8331255486568782e+01  2.7141252731453047e+01  2.4886029725905580e+01  2.0550254730939276e+01  1.2457764891387431e+01  0.0000000000000000e+00  0.0000000000000000e+00  7.2456037706676932e+00  1.2868916323968485e+01  1.6547477625988908e+01  1.8756237818563452e+01  2.0036655062782305e+01  2.0769337470688150e+01  2.1186804538075837e+01  2.1424428113381765e+01  2.1559699955146499e+01  2.1636738201464333e+01  2.1680630081019835e+01  2.1705644792327679e+01  2.1719903725807459e+01  2.1728032221976964e+01  2.1732665888170818e+01  2.1735307074262749e+01  2.1736812325098473e+01  2.1737670027268205e+01  2.1738158644768273e+01  2.1738436934657187e+01  2.1738595393246978e+01  2.1738685596139561e+01  2.1738736930670886e+01  2.1738766137383681e+01  2.1738782750082549e+01  2.1738792196853424e+01  2.1738797567345060e+01  2.1738800619695375e+01  2.1738802354085724e+01  2.1738803339353169e+01  2.1738803898929074e+01  2.1738804216663539e+01  2.1738804397037139e+01  2.1738804499410673e+01  2.1738804557502036e+01  2.1738804590459015e+01  2.1738804609152776e+01  2.1738804619754216e+01  2.1738804625765276e+01  2.1738804629172961e+01  2.1738804631104433e+01  2.1738804632198963e+01  2.1738804632819058e+01  2.1738804633170208e+01  2.1738804633368883e+01  2.1738804633480925e+01  2.1738804633543563e+01  2.1738804633577608e+01  2.1738804633594359e+01  2.1738804633599397e+01  2.1738804633594373e+01  2.1738804633577622e+01  2.1738804633543602e+01  2.1738804633480978e+01  2.1738804633368989e+01  2.1738804633170417e+01  2.1738804632819431e+01  2.1738804632199642e+01  2.1738804631105655e+01  2.1738804629175135e+01  2.1738804625769134e+01  2.1738804619760984e+01  2.1738804609164671e+01  2.1738804590479823e+01  2.1738804557538554e+01  2.1738804499474618e+01  2.1738804397149011e+01  2.1738804216859204e+01  2.1738803899270970e+01  2.1738803339950184e+01  2.1738802355127262e+01  2.1738800621510702e+01  2.1738797570505884e+01  2.1738792202350954e+01  2.1738782759632677e+01  2.1738766153951683e+01  2.1738736959371263e+01  2.1738685645774442e+01  2.1738595478927387e+01  2.1738437082250726e+01  2.1738158898410195e+01  2.1737670461971788e+01  2.1736813067778574e+01  2.1735308338480870e+01  2.1732668030928661e+01  2.1728035835234767e+01  2.1719909781180810e+01  2.1705654863905032e+01  2.1680646675500121e+01  2.1636765218465335e+01  2.1559743263200435e+01  2.1424496114287368e+01  2.1186908317995947e+01  2.0769489569912871e+01  2.0036864973885507e+01  1.8756501673414252e+01  1.6547762810502029e+01  1.2869160857419345e+01  7.2457978260462692e+00  0.0000000000000000e+00  0.0000000000000000e+00  4.3982810935897954e+00  8.0967437785986895e+00  1.0804354312896809e+01  1.2610038077592593e+01  1.3747995806688589e+01  1.4441817920817163e+01  1.4856640677972560e+01  1.5101678956263795e+01  1.5245295724085048e+01  1.5329019476253753e+01  1.5377639270059834e+01  1.5405791150842781e+01  1.5422054151464437e+01  1.5431431443670441e+01  1.5436829897071730e+01  1.5439933554296150e+01  1.5441715789484013e+01  1.5442738144293765e+01  1.5443324054162677e+01  1.5443659553281366e+01  1.5443851515590557e+01  1.5443961272620847e+01  1.5444023986623789e+01  1.5444059799024284e+01  1.5444080237925103e+01  1.5444091896708287e+01  1.5444098543853487e+01  1.5444102331910882e+01  1.5444104489701562e+01  1.5444105718340529e+01  1.5444106417653146e+01  1.5444106815540025e+01  1.5444107041846685e+01  1.5444107170521097e+01  1.5444107243660484e+01  1.5444107285221026e+01  1.5444107308830576e+01  1.5444107322238974e+01  1.5444107329851915e+01  1.5444107334173276e+01  1.5444107336625640e+01  1.5444107338016979e+01  1.5444107338806088e+01  1.5444107339253446e+01  1.5444107339506768e+01  1.5444107339649797e+01  1.5444107339729827e+01  1.5444107339773357e+01  1.5444107339794787e+01  1.5444107339801230e+01  1.5444107339794797e+01  1.5444107339773392e+01  1.5444107339729900e+01  1.5444107339649923e+01  1.5444107339507012e+01  1.5444107339253883e+01  1.5444107338806889e+01  1.5444107338018405e+01  1.5444107336628157e+01  1.5444107334177723e+01  1.5444107329859703e+01  1.5444107322252616e+01  1.5444107308854447e+01  1.5444107285262803e+01  1.5444107243733519e+01  1.5444107170648692e+01  1.5444107042069353e+01  1.5444106815928347e+01  1.5444106418329769e+01  1.5444105719518351e+01  1.5444104491749670e+01  1.5444102335468354e+01  1.5444098550024968e+01  1.5444091907399971e+01  1.5444080256420172e+01  1.5444059830965449e+01  1.5444024041685619e+01  1.5443961367345807e+01  1.5443851678176935e+01  1.5443659831626057e+01  1.5443324529289544e+01  1.5442738952612688e+01  1.5441717159364835e+01  1.5439935865514979e+01  1.5436833776121727e+01  1.5431437913902677e+01  1.5422064864120369e+01  1.5405808729216258e+01  1.5377667798473016e+01  1.5329065144568252e+01  1.5245367568779651e+01  1.5101789469562302e+01  1.4856805713920782e+01  1.4442054766474138e+01  1.3748317710261121e+01  1.2610444036030188e+01  1.0804817782564578e+01  8.0972183534003221e+00  4.3987579355695141e+00  0.0000000000000000e+00  0.0000000000000000e+00  2.7148829794101492e+00  5.0982681130385679e+00  6.9665383814658597e+00  8.3080970768271758e+00  9.2127113226285484e+00  9.7967714297091568e+00  1.0162803563581910e+01  1.0387498034129585e+01  1.0523412884094546e+01  1.0604744084102837e+01  1.0653018781918682e+01  1.0681493057418360e+01  1.0698204816373353e+01  1.0707973560551920e+01  1.0713664812680344e+01  1.0716971260000214e+01  1.0718887633588638e+01  1.0719996057292912e+01  1.0720636017176327e+01  1.0721004921836897e+01  1.0721217278991105e+01  1.0721339367644521e+01  1.0721409479857016e+01  1.0721449702288680e+01  1.0721472755907312e+01  1.0721485957932869e+01  1.0721493512383452e+01  1.0721497832073259e+01  1.0721500300459059e+01  1.0721501710089065e+01  1.0721502514628712e+01  1.0721502973569521e+01  1.0721503235235838e+01  1.0721503384355351e+01  1.0721503469298638e+01  1.0721503517664907e+01  1.0721503545193592e+01  1.0721503560856302e+01  1.0721503569764613e+01  1.0721503574829573e+01  1.0721503577708429e+01  1.0721503579344173e+01  1.0721503580273247e+01  1.0721503580800634e+01  1.0721503581099668e+01  1.0721503581268701e+01  1.0721503581363399e+01  1.0721503581414954e+01  1.0721503581440350e+01  1.0721503581447989e+01  1.0721503581440379e+01  1.0721503581415018e+01  1.0721503581363523e+01  1.0721503581268930e+01  1.0721503581100063e+01  1.0721503580801356e+01  1.0721503580274511e+01  1.0721503579346418e+01  1.0721503577712372e+01  1.0721503574836492e+01  1.0721503569776690e+01  1.0721503560877423e+01  1.0721503545230489e+01  1.0721503517729312e+01  1.0721503469410946e+01  1.0721503384551042e+01  1.0721503235576471e+01  1.0721502974161883e+01  1.0721502515657736e+01  1.0721501711874621e+01  1.0721500303553508e+01  1.0721497837428831e+01  1.0721493521638600e+01  1.0721485973901048e+01  1.0721472783408382e+01  1.0721449749558440e+01  1.0721409560927357e+01  1.0721339506343961e+01  1.0721217515633253e+01  1.0721005324333344e+01  1.0720636699364542e+01  1.0719997208897421e+01  1.0718889568674950e+01  1.0716974494301665e+01  1.0713670184952909e+01  1.0707982418949669e+01  1.0698219296543432e+01  1.0681516481129476e+01  1.0653056195526828e+01  1.0604802918796757e+01  1.0523503626025606e+01  1.0387634600945329e+01  1.0163002759576399e+01  9.7970504435079775e+00  9.2130820817651795e+00  8.3085574116893728e+00  6.9670642735725323e+00  5.0988193540179916e+00  2.7154369845933313e+00  0.0000000000000000e+00  0.0000000000000000e+00  1.6845838897868521e+00  3.2027151931508433e+00  4.4470519696442548e+00  5.3891854649095210e+00  6.0592229603705698e+00  6.5135883012630069e+00  6.8109141702330476e+00  7.0003598998618788e+00  7.1186649134904743e+00  7.1914156603184365e+00  7.2356206404653500e+00  7.2622272214337276e+00  7.2781198317177900e+00  7.2875538155101180e+00  7.2931250542780921e+00  7.2964009099144844e+00  7.2983200091273863e+00  7.2994407265957415e+00  7.3000934121759622e+00  7.3004726144606904e+00  7.3006924616576159e+00  7.3008196823028770e+00  7.3008931790787086e+00  7.3009355753127583e+00  7.3009599982668334e+00  7.3009740501944851e+00  7.3009821260412302e+00  7.3009867626057181e+00  7.3009894220883931e+00  7.3009909462215816e+00  7.3009918189963603e+00  7.3009923184100787e+00  7.3009926039853283e+00  7.3009927671788768e+00  7.3009928603810721e+00  7.3009929135804805e+00  7.3009929439305683e+00  7.3009929612366760e+00  7.3009929711003103e+00  7.3009929767196287e+00  7.3009929799196245e+00  7.3009929817411265e+00  7.3009929827774815e+00  7.3009929833667497e+00  7.3009929837013781e+00  7.3009929838908176e+00  7.3009929839970855e+00  7.3009929840550036e+00  7.3009929840835710e+00  7.3009929840921677e+00  7.3009929840836110e+00  7.3009929840550978e+00  7.3009929839972658e+00  7.3009929838911400e+00  7.3009929837019509e+00  7.3009929833677552e+00  7.3009929827792401e+00  7.3009929817442121e+00  7.3009929799250202e+00  7.3009929767290647e+00  7.3009929711167576e+00  7.3009929612653508e+00  7.3009929439805354e+00  7.3009929136674705e+00  7.3009928605323609e+00  7.3009927674417288e+00  7.3009926044415252e+00  7.3009923192009349e+00  7.3009918203656543e+00  7.3009909485892388e+00  7.3009894261763320e+00  7.3009867696525834e+00  7.3009821381675435e+00  7.3009740710215318e+00  7.3009600339618519e+00  7.3009356363466704e+00  7.3008932831680120e+00  7.3008198593064701e+00  7.3006927616757649e+00  7.3004731211300049e+00  7.3000942643014834e+00  7.2994421529761286e+00  7.2983223838999569e+00  7.2964048391169039e+00  7.2931315085315802e+00  7.2875643281517641e+00  7.2781367844713740e+00  7.2622542364492650e+00  7.2356630795517747e+00  7.1914811841362773e+00  7.1187639528086946e+00  7.0005057145542313e+00  6.8111219233830598e+00  6.5138723593374435e+00  6.0595917856660941e+00  5.3896346869506786e+00  4.4475592050498998e+00  3.2032437955997746e+00  1.6851012585174794e+00  0.0000000000000000e+00  0.0000000000000000e+00  1.0452952744641097e+00  2.0038522250004349e+00  2.8142699144311947e+00  3.4523196808326921e+00  3.9255471121934380e+00  4.2599467394102213e+00  4.4873250943890826e+00  4.6373107740953490e+00  4.7339044961232313e+00  4.7949415660680419e+00  4.8329280841058448e+00  4.8562797423283328e+00  4.8704909390179187e+00  4.8790677103615581e+00  4.8842080305368345e+00  4.8872706973275832e+00  4.8890863349937010e+00  4.8901580598567804e+00  4.8907883075739900e+00  4.8911577261075090e+00  4.8913736380183082e+00  4.8914995098721556e+00  4.8915727242182534e+00  4.8916152236089587e+00  4.8916398486442230e+00  4.8916540934056894e+00  4.8916623212123094e+00  4.8916670671441507e+00  4.8916698012685620e+00  4.8916713745962701e+00  4.8916722790032443e+00  4.8916727983861401e+00  4.8916730963899884e+00  4.8916732672320231e+00  4.8916733650979669e+00  4.8916734211195267e+00  4.8916734531664439e+00  4.8916734714871861e+00  4.8916734819546850e+00  4.8916734879319126e+00  4.8916734913432585e+00  4.8916734932891766e+00  4.8916734943985567e+00  4.8916734950305498e+00  4.8916734953901004e+00  4.8916734955939969e+00  4.8916734957085559e+00  4.8916734957710775e+00  4.8916734958019505e+00  4.8916734958112480e+00  4.8916734958020047e+00  4.8916734957712000e+00  4.8916734957087922e+00  4.8916734955944143e+00  4.8916734953908332e+00  4.8916734950318279e+00  4.8916734944007798e+00  4.8916734932930659e+00  4.8916734913500459e+00  4.8916734879437360e+00  4.8916734819752596e+00  4.8916734715229611e+00  4.8916734532286066e+00  4.8916734212274431e+00  4.8916733652850946e+00  4.8916732675561425e+00  4.8916730969506670e+00  4.8916727993547520e+00  4.8916722806741575e+00  4.8916713774741929e+00  4.8916698062169655e+00  4.8916670756367857e+00  4.8916623357580136e+00  4.8916541182630802e+00  4.8916398910188388e+00  4.8916152956487613e+00  4.8915728463211661e+00  4.8914997161327767e+00  4.8913739851300759e+00  4.8911583077845338e+00  4.8907892776719555e+00  4.8901596689781526e+00  4.8890889875642767e+00  4.8872750389274007e+00  4.8842150783643010e+00  4.8790790421537880e+00  4.8705089553056435e+00  4.8563080090887816e+00  4.8329717398116303e+00  4.7950077269310043e+00  4.7340025022574164e+00  4.6374519816475450e+00  4.4875217628095312e+00  4.2602095012816052e+00  3.9258807982788402e+00  3.4527182589621330e+00  2.8147130497321720e+00  2.0043073364652719e+00  1.0457272528769839e+00  0.0000000000000000e+00  0.0000000000000000e+00  6.4706221811356812e-01  1.2478128933598265e+00  1.7673474483238656e+00  2.1887206316648564e+00  2.5118743752911419e+00  2.7482233632662982e+00  2.9144058070298255e+00  3.0275304062604067e+00  3.1025250338002013e+00  3.1511763644027635e+00  3.1821813779178934e+00  3.2016522326190118e+00  3.2137310986907170e+00  3.2211478444503734e+00  3.2256626254354561e+00  3.2283906884437492e+00  3.2300287171236959e+00  3.2310068806777634e+00  3.2315882246405194e+00  3.2319322922817446e+00  3.2321351816446886e