<?xml version="1.0"?>
<VTKFile type="UnstructuredGrid"  version="0.1"  >
<UnstructuredGrid>
<Piece  NumberOfPoints="10201" NumberOfCells="20000">
<Points>
<DataArray  type="Float64"  NumberOfComponents="3"  format="ascii">0 0 0  0.01 0 0  0.02 0 0  0.03 0 0  0.04 0 0  0.05 0 0  0.06 0 0  0.07000000000000001 0 0  0.08 0 0  0.09 0 0  0.1 0 0  0.11 0 0  0.12 0 0  0.13 0 0  0.14 0 0  0.15 0 0  0.16 0 0  0.17 0 0  0.18 0 0  0.19 0 0  0.2 0 0  0.21 0 0  0.22 0 0  0.23 0 0  0.24 0 0  0.25 0 0  0.26 0 0  0.27 0 0  0.28 0 0  0.29 0 0  0.3 0 0  0.31 0 0  0.32 0 0  0.33 0 0  0.34 0 0  0.35 0 0  0.36 0 0  0.37 0 0  0.38 0 0  0.39 0 0  0.4 0 0  0.41 0 0  0.42 0 0  0.43 0 0  0.44 0 0  0.45 0 0  0.46 0 0  0.47 0 0  0.48 0 0  0.49 0 0  0.5 0 0  0.51 0 0  0.52 0 0  0.53 0 0  0.54 0 0  0.55 0 0  0.5600000000000001 0 0  0.57 0 0  0.58 0 0  0.59 0 0  0.6 0 0  0.61 0 0  0.62 0 0  0.63 0 0  0.64 0 0  0.65 0 0  0.66 0 0  0.67 0 0  0.68 0 0  0.6899999999999999 0 0  0.7 0 0  0.71 0 0  0.72 0 0  0.73 0 0  0.74 0 0  0.75 0 0  0.76 0 0  0.77 0 0  0.78 0 0  0.79 0 0  0.8 0 0  0.8100000000000001 0 0  0.82 0 0  0.83 0 0  0.84 0 0  0.85 0 0  0.86 0 0  0.87 0 0  0.88 0 0  0.89 0 0  0.9 0 0  0.91 0 0  0.92 0 0  0.93 0 0  0.9399999999999999 0 0  0.95 0 0  0.96 0 0  0.97 0 0  0.98 0 0  0.99 0 0  1 0 0  0 0.01 0  0.01 0.01 0  0.02 0.01 0  0.03 0.01 0  0.04 0.01 0  0.05 0.01 0  0.06 0.01 0  0.07000000000000001 0.01 0  0.08 0.01 0  0.09 0.01 0  0.1 0.01 0  0.11 0.01 0  0.12 0.01 0  0.13 0.01 0  0.14 0.01 0  0.15 0.01 0  0.16 0.01 0  0.17 0.01 0  0.18 0.01 0  0.19 0.01 0  0.2 0.01 0  0.21 0.01 0  0.22 0.01 0  0.23 0.01 0  0.24 0.01 0  0.25 0.01 0  0.26 0.01 0  0.27 0.01 0  0.28 0.01 0  0.29 0.01 0  0.3 0.01 0  0.31 0.01 0  0.32 0.01 0  0.33 0.01 0  0.34 0.01 0  0.35 0.01 0  0.36 0.01 0  0.37 0.01 0  0.38 0.01 0  0.39 0.01 0  0.4 0.01 0  0.41 0.01 0  0.42 0.01 0  0.43 0.01 0  0.44 0.01 0  0.45 0.01 0  0.46 0.01 0  0.47 0.01 0  0.48 0.01 0  0.49 0.01 0  0.5 0.01 0  0.51 0.01 0  0.52 0.01 0  0.53 0.01 0  0.54 0.01 0  0.55 0.01 0  0.5600000000000001 0.01 0  0.57 0.01 0  0.58 0.01 0  0.59 0.01 0  0.6 0.01 0  0.61 0.01 0  0.62 0.01 0  0.63 0.01 0  0.64 0.01 0  0.65 0.01 0  0.66 0.01 0  0.67 0.01 0  0.68 0.01 0  0.6899999999999999 0.01 0  0.7 0.01 0  0.71 0.01 0  0.72 0.01 0  0.73 0.01 0  0.74 0.01 0  0.75 0.01 0  0.76 0.01 0  0.77 0.01 0  0.78 0.01 0  0.79 0.01 0  0.8 0.01 0  0.8100000000000001 0.01 0  0.82 0.01 0  0.83 0.01 0  0.84 0.01 0  0.85 0.01 0  0.86 0.01 0  0.87 0.01 0  0.88 0.01 0  0.89 0.01 0  0.9 0.01 0  0.91 0.01 0  0.92 0.01 0  0.93 0.01 0  0.9399999999999999 0.01 0  0.95 0.01 0  0.96 0.01 0  0.97 0.01 0  0.98 0.01 0  0.99 0.01 0  1 0.01 0  0 0.02 0  0.01 0.02 0  0.02 0.02 0  0.03 0.02 0  0.04 0.02 0  0.05 0.02 0  0.06 0.02 0  0.07000000000000001 0.02 0  0.08 0.02 0  0.09 0.02 0  0.1 0.02 0  0.11 0.02 0  0.12 0.02 0  0.13 0.02 0  0.14 0.02 0  0.15 0.02 0  0.16 0.02 0  0.17 0.02 0  0.18 0.02 0  0.19 0.02 0  0.2 0.02 0  0.21 0.02 0  0.22 0.02 0  0.23 0.02 0  0.24 0.02 0  0.25 0.02 0  0.26 0.02 0  0.27 0.02 0  0.28 0.02 0  0.29 0.02 0  0.3 0.02 0  0.31 0.02 0  0.32 0.02 0  0.33 0.02 0  0.34 0.02 0  0.35 0.02 0  0.36 0.02 0  0.37 0.02 0  0.38 0.02 0  0.39 0.02 0  0.4 0.02 0  0.41 0.02 0  0.42 0.02 0  0.43 0.02 0  0.44 0.02 0  0.45 0.02 0  0.46 0.02 0  0.47 0.02 0  0.48 0.02 0  0.49 0.02 0  0.5 0.02 0  0.51 0.02 0  0.52 0.02 0  0.53 0.02 0  0.54 0.02 0  0.55 0.02 0  0.5600000000000001 0.02 0  0.57 0.02 0  0.58 0.02 0  0.59 0.02 0  0.6 0.02 0  0.61 0.02 0  0.62 0.02 0  0.63 0.02 0  0.64 0.02 0  0.65 0.02 0  0.66 0.02 0  0.67 0.02 0  0.68 0.02 0  0.6899999999999999 0.02 0  0.7 0.02 0  0.71 0.02 0  0.72 0.02 0  0.73 0.02 0  0.74 0.02 0  0.75 0.02 0  0.76 0.02 0  0.77 0.02 0  0.78 0.02 0  0.79 0.02 0  0.8 0.02 0  0.8100000000000001 0.02 0  0.82 0.02 0  0.83 0.02 0  0.84 0.02 0  0.85 0.02 0  0.86 0.02 0  0.87 0.02 0  0.88 0.02 0  0.89 0.02 0  0.9 0.02 0  0.91 0.02 0  0.92 0.02 0  0.93 0.02 0  0.9399999999999999 0.02 0  0.95 0.02 0  0.96 0.02 0  0.97 0.02 0  0.98 0.02 0  0.99 0.02 0  1 0.02 0  0 0.03 0  0.01 0.03 0  0.02 0.03 0  0.03 0.03 0  0.04 0.03 0  0.05 0.03 0  0.06 0.03 0  0.07000000000000001 0.03 0  0.08 0.03 0  0.09 0.03 0  0.1 0.03 0  0.11 0.03 0  0.12 0.03 0  0.13 0.03 0  0.14 0.03 0  0.15 0.03 0  0.16 0.03 0  0.17 0.03 0  0.18 0.03 0  0.19 0.03 0  0.2 0.03 0  0.21 0.03 0  0.22 0.03 0  0.23 0.03 0  0.24 0.03 0  0.25 0.03 0  0.26 0.03 0  0.27 0.03 0  0.28 0.03 0  0.29 0.03 0  0.3 0.03 0  0.31 0.03 0  0.32 0.03 0  0.33 0.03 0  0.34 0.03 0  0.35 0.03 0  0.36 0.03 0  0.37 0.03 0  0.38 0.03 0  0.39 0.03 0  0.4 0.03 0  0.41 0.03 0  0.42 0.03 0  0.43 0.03 0  0.44 0.03 0  0.45 0.03 0  0.46 0.03 0  0.47 0.03 0  0.48 0.03 0  0.49 0.03 0  0.5 0.03 0  0.51 0.03 0  0.52 0.03 0  0.53 0.03 0  0.54 0.03 0  0.55 0.03 0  0.5600000000000001 0.03 0  0.57 0.03 0  0.58 0.03 0  0.59 0.03 0  0.6 0.03 0  0.61 0.03 0  0.62 0.03 0  0.63 0.03 0  0.64 0.03 0  0.65 0.03 0  0.66 0.03 0  0.67 0.03 0  0.68 0.03 0  0.6899999999999999 0.03 0  0.7 0.03 0  0.71 0.03 0  0.72 0.03 0  0.73 0.03 0  0.74 0.03 0  0.75 0.03 0  0.76 0.03 0  0.77 0.03 0  0.78 0.03 0  0.79 0.03 0  0.8 0.03 0  0.8100000000000001 0.03 0  0.82 0.03 0  0.83 0.03 0  0.84 0.03 0  0.85 0.03 0  0.86 0.03 0  0.87 0.03 0  0.88 0.03 0  0.89 0.03 0  0.9 0.03 0  0.91 0.03 0  0.92 0.03 0  0.93 0.03 0  0.9399999999999999 0.03 0  0.95 0.03 0  0.96 0.03 0  0.97 0.03 0  0.98 0.03 0  0.99 0.03 0  1 0.03 0  0 0.04 0  0.01 0.04 0  0.02 0.04 0  0.03 0.04 0  0.04 0.04 0  0.05 0.04 0  0.06 0.04 0  0.07000000000000001 0.04 0  0.08 0.04 0  0.09 0.04 0  0.1 0.04 0  0.11 0.04 0  0.12 0.04 0  0.13 0.04 0  0.14 0.04 0  0.15 0.04 0  0.16 0.04 0  0.17 0.04 0  0.18 0.04 0  0.19 0.04 0  0.2 0.04 0  0.21 0.04 0  0.22 0.04 0  0.23 0.04 0  0.24 0.04 0  0.25 0.04 0  0.26 0.04 0  0.27 0.04 0  0.28 0.04 0  0.29 0.04 0  0.3 0.04 0  0.31 0.04 0  0.32 0.04 0  0.33 0.04 0  0.34 0.04 0  0.35 0.04 0  0.36 0.04 0  0.37 0.04 0  0.38 0.04 0  0.39 0.04 0  0.4 0.04 0  0.41 0.04 0  0.42 0.04 0  0.43 0.04 0  0.44 0.04 0  0.45 0.04 0  0.46 0.04 0  0.47 0.04 0  0.48 0.04 0  0.49 0.04 0  0.5 0.04 0  0.51 0.04 0  0.52 0.04 0  0.53 0.04 0  0.54 0.04 0  0.55 0.04 0  0.5600000000000001 0.04 0  0.57 0.04 0  0.58 0.04 0  0.59 0.04 0  0.6 0.04 0  0.61 0.04 0  0.62 0.04 0  0.63 0.04 0  0.64 0.04 0  0.65 0.04 0  0.66 0.04 0  0.67 0.04 0  0.68 0.04 0  0.6899999999999999 0.04 0  0.7 0.04 0  0.71 0.04 0  0.72 0.04 0  0.73 0.04 0  0.74 0.04 0  0.75 0.04 0  0.76 0.04 0  0.77 0.04 0  0.78 0.04 0  0.79 0.04 0  0.8 0.04 0  0.8100000000000001 0.04 0  0.82 0.04 0  0.83 0.04 0  0.84 0.04 0  0.85 0.04 0  0.86 0.04 0  0.87 0.04 0  0.88 0.04 0  0.89 0.04 0  0.9 0.04 0  0.91 0.04 0  0.92 0.04 0  0.93 0.04 0  0.9399999999999999 0.04 0  0.95 0.04 0  0.96 0.04 0  0.97 0.04 0  0.98 0.04 0  0.99 0.04 0  1 0.04 0  0 0.05 0  0.01 0.05 0  0.02 0.05 0  0.03 0.05 0  0.04 0.05 0  0.05 0.05 0  0.06 0.05 0  0.07000000000000001 0.05 0  0.08 0.05 0  0.09 0.05 0  0.1 0.05 0  0.11 0.05 0  0.12 0.05 0  0.13 0.05 0  0.14 0.05 0  0.15 0.05 0  0.16 0.05 0  0.17 0.05 0  0.18 0.05 0  0.19 0.05 0  0.2 0.05 0  0.21 0.05 0  0.22 0.05 0  0.23 0.05 0  0.24 0.05 0  0.25 0.05 0  0.26 0.05 0  0.27 0.05 0  0.28 0.05 0  0.29 0.05 0  0.3 0.05 0  0.31 0.05 0  0.32 0.05 0  0.33 0.05 0  0.34 0.05 0  0.35 0.05 0  0.36 0.05 0  0.37 0.05 0  0.38 0.05 0  0.39 0.05 0  0.4 0.05 0  0.41 0.05 0  0.42 0.05 0  0.43 0.05 0  0.44 0.05 0  0.45 0.05 0  0.46 0.05 0  0.47 0.05 0  0.48 0.05 0  0.49 0.05 0  0.5 0.05 0  0.51 0.05 0  0.52 0.05 0  0.53 0.05 0  0.54 0.05 0  0.55 0.05 0  0.5600000000000001 0.05 0  0.57 0.05 0  0.58 0.05 0  0.59 0.05 0  0.6 0.05 0  0.61 0.05 0  0.62 0.05 0  0.63 0.05 0  0.64 0.05 0  0.65 0.05 0  0.66 0.05 0  0.67 0.05 0  0.68 0.05 0  0.6899999999999999 0.05 0  0.7 0.05 0  0.71 0.05 0  0.72 0.05 0  0.73 0.05 0  0.74 0.05 0  0.75 0.05 0  0.76 0.05 0  0.77 0.05 0  0.78 0.05 0  0.79 0.05 0  0.8 0.05 0  0.8100000000000001 0.05 0  0.82 0.05 0  0.83 0.05 0  0.84 0.05 0  0.85 0.05 0  0.86 0.05 0  0.87 0.05 0  0.88 0.05 0  0.89 0.05 0  0.9 0.05 0  0.91 0.05 0  0.92 0.05 0  0.93 0.05 0  0.9399999999999999 0.05 0  0.95 0.05 0  0.96 0.05 0  0.97 0.05 0  0.98 0.05 0  0.99 0.05 0  1 0.05 0  0 0.06 0  0.01 0.06 0  0.02 0.06 0  0.03 0.06 0  0.04 0.06 0  0.05 0.06 0  0.06 0.06 0  0.07000000000000001 0.06 0  0.08 0.06 0  0.09 0.06 0  0.1 0.06 0  0.11 0.06 0  0.12 0.06 0  0.13 0.06 0  0.14 0.06 0  0.15 0.06 0  0.16 0.06 0  0.17 0.06 0  0.18 0.06 0  0.19 0.06 0  0.2 0.06 0  0.21 0.06 0  0.22 0.06 0  0.23 0.06 0  0.24 0.06 0  0.25 0.06 0  0.26 0.06 0  0.27 0.06 0  0.28 0.06 0  0.29 0.06 0  0.3 0.06 0  0.31 0.06 0  0.32 0.06 0  0.33 0.06 0  0.34 0.06 0  0.35 0.06 0  0.36 0.06 0  0.37 0.06 0  0.38 0.06 0  0.39 0.06 0  0.4 0.06 0  0.41 0.06 0  0.42 0.06 0  0.43 0.06 0  0.44 0.06 0  0.45 0.06 0  0.46 0.06 0  0.47 0.06 0  0.48 0.06 0  0.49 0.06 0  0.5 0.06 0  0.51 0.06 0  0.52 0.06 0  0.53 0.06 0  0.54 0.06 0  0.55 0.06 0  0.5600000000000001 0.06 0  0.57 0.06 0  0.58 0.06 0  0.59 0.06 0  0.6 0.06 0  0.61 0.06 0  0.62 0.06 0  0.63 0.06 0  0.64 0.06 0  0.65 0.06 0  0.66 0.06 0  0.67 0.06 0  0.68 0.06 0  0.6899999999999999 0.06 0  0.7 0.06 0  0.71 0.06 0  0.72 0.06 0  0.73 0.06 0  0.74 0.06 0  0.75 0.06 0  0.76 0.06 0  0.77 0.06 0  0.78 0.06 0  0.79 0.06 0  0.8 0.06 0  0.8100000000000001 0.06 0  0.82 0.06 0  0.83 0.06 0  0.84 0.06 0  0.85 0.06 0  0.86 0.06 0  0.87 0.06 0  0.88 0.06 0  0.89 0.06 0  0.9 0.06 0  0.91 0.06 0  0.92 0.06 0  0.93 0.06 0  0.9399999999999999 0.06 0  0.95 0.06 0  0.96 0.06 0  0.97 0.06 0  0.98 0.06 0  0.99 0.06 0  1 0.06 0  0 0.07000000000000001 0  0.01 0.07000000000000001 0  0.02 0.07000000000000001 0  0.03 0.07000000000000001 0  0.04 0.07000000000000001 0  0.05 0.07000000000000001 0  0.06 0.07000000000000001 0  0.07000000000000001 0.07000000000000001 0  0.08 0.07000000000000001 0  0.09 0.07000000000000001 0  0.1 0.07000000000000001 0  0.11 0.07000000000000001 0  0.12 0.07000000000000001 0  0.13 0.07000000000000001 0  0.14 0.07000000000000001 0  0.15 0.07000000000000001 0  0.16 0.07000000000000001 0  0.17 0.0700
[...]
<PointData  Scalars="f_17"> 
<DataArray  type="Float64"  Name="f_17"  format="ascii">0.0000000000000000e+00  5.0000000000000000e+01  5.0000000000000000e+01  5.0000000000000000e+01  5.0000000000000000e+01  5.0000000000000000e+01  5.0000000000000000e+01  5.0000000000000000e+01  5.0000000000000000e+01  5.0000000000000000e+01  5.0000000000000000e+01  5.0000000000000000e+01  5.0000000000000000e+01  5.0000000000000000e+01  5.0000000000000000e+01  5.0000000000000000e+01  5.0000000000000000e+01  5.0000000000000000e+01  5.0000000000000000e+01  5.0000000000000000e+01  5.0000000000000000e+01  5.0000000000000000e+01  5.0000000000000000e+01  5.0000000000000000e+01  5.0000000000000000e+01  5.0000000000000000e+01  5.0000000000000000e+01  5.0000000000000000e+01  5.0000000000000000e+01  5.0000000000000000e+01  5.0000000000000000e+01  5.0000000000000000e+01  5.0000000000000000e+01  5.0000000000000000e+01  5.0000000000000000e+01  5.0000000000000000e+01  5.0000000000000000e+01  5.0000000000000000e+01  5.0000000000000000e+01  5.0000000000000000e+01  5.0000000000000000e+01  5.0000000000000000e+01  5.0000000000000000e+01  5.0000000000000000e+01  5.0000000000000000e+01  5.0000000000000000e+01  5.0000000000000000e+01  5.0000000000000000e+01  5.0000000000000000e+01  5.0000000000000000e+01  5.0000000000000000e+01  5.0000000000000000e+01  5.0000000000000000e+01  5.0000000000000000e+01  5.0000000000000000e+01  5.0000000000000000e+01  5.0000000000000000e+01  5.0000000000000000e+01  5.0000000000000000e+01  5.0000000000000000e+01  5.0000000000000000e+01  5.0000000000000000e+01  5.0000000000000000e+01  5.0000000000000000e+01  5.0000000000000000e+01  5.0000000000000000e+01  5.0000000000000000e+01  5.0000000000000000e+01  5.0000000000000000e+01  5.0000000000000000e+01  5.0000000000000000e+01  5.0000000000000000e+01  5.0000000000000000e+01  5.0000000000000000e+01  5.0000000000000000e+01  5.0000000000000000e+01  5.0000000000000000e+01  5.0000000000000000e+01  5.0000000000000000e+01  5.0000000000000000e+01  5.0000000000000000e+01  5.0000000000000000e+01  5.0000000000000000e+01  5.0000000000000000e+01  5.0000000000000000e+01  5.0000000000000000e+01  5.0000000000000000e+01  5.0000000000000000e+01  5.0000000000000000e+01  5.0000000000000000e+01  5.0000000000000000e+01  5.0000000000000000e+01  5.0000000000000000e+01  5.0000000000000000e+01  5.0000000000000000e+01  5.0000000000000000e+01  5.0000000000000000e+01  5.0000000000000000e+01  5.0000000000000000e+01  5.0000000000000000e+01  0.0000000000000000e+00  0.0000000000000000e+00  2.4938395292094071e+01  3.5130548307822039e+01  3.9576026202168897e+01  4.1957383021595462e+01  4.3411282228351645e+01  4.4377818669310727e+01  4.5058785595748354e+01  4.5558834435652031e+01  4.5937422176417961e+01  4.6230763947875445e+01  4.6462157293436384e+01  4.6647263185265594e+01  4.6796995633562226e+01  4.6919192441228887e+01  4.7019626653744389e+01  4.7102643160505750e+01  4.7171572965136001e+01  4.7229010701413117e+01  4.7277005331414394e+01  4.7317194178361000e+01  4.7350899055851720e+01  4.7379196482183190e+01  4.7402969824302986e+01  4.7422948614574679e+01  4.7439738612606810e+01  4.7453845088608432e+01  4.7465691072454554e+01  4.7475631814845507e+01  4.7483966363210598e+01  4.7490946914248539e+01  4.7496786434132709e+01  4.7501664914680468e+01  4.7505734544633889e+01  4.7509124009761940e+01  4.7511942086987432e+01  4.7514280661444907e+01  4.7516217267966063e+01  4.7517817237607581e+01  4.7519135513775893e+01  4.7520218190042222e+01  4.7521103811971571e+01  4.7521824477552457e+01  4.7522406764614914e+01  4.7522872508595803e+01  4.7523239449875746e+01  4.7523521766460163e+01  4.7523730504846135e+01  4.7523873919389274e+01  4.7523957728251332e+01  4.7523985292007318e+01  4.7523957719144612e+01  4.7523873900953788e+01  4.7523730476636054e+01  4.7523521727802390e+01  4.7523239399864579e+01  4.7522872446086261e+01  4.7522406688215341e+01  4.7521824385615901e+01  4.7521103702586736e+01  4.7520218061024877e+01  4.7519135362660691e+01  4.7517817061641281e+01  4.7516217064102527e+01  4.7514280426342708e+01  4.7511941817010857e+01  4.7509123700985988e+01  4.7505734192854156e+01  4.7501664515428260e+01  4.7496785982696522e+01  4.7490946405702296e+01  4.7483965792448672e+01  4.7475631176625370e+01  4.7465690361447045e+01  4.7453844299455476e+01  4.7439737739986001e+01  4.7422947653270576e+01  4.7402968769284243e+01  4.7379195328684069e+01  4.7350897799456426e+01  4.7317192815089271e+01  4.7277003857806754e+01  4.7229009114612445e+01  4.7171571262963447e+01  4.7102641341528333e+01  4.7019624717330466e+01  4.6919190387589019e+01  4.6796993463771827e+01  4.6647260901264751e+01  4.6462154898003277e+01  4.6230761444566987e+01  4.5937419569469334e+01  4.5558831729822060e+01  4.5058782796083868e+01  4.4377815780772380e+01  4.3411279255152436e+01  4.1957379965797841e+01  3.9576023059870252e+01  3.5130545055361310e+01  2.4938391820121328e+01  0.0000000000000000e+00  0.0000000000000000e+00  1.4623516917101297e+01  2.4754550307456594e+01  3.0917391338747787e+01  3.4753402671214609e+01  3.7278999655753736e+01  3.9029820914499311e+01  4.0294956263537316e+01  4.1239277990733179e+01  4.1962225761900655e+01  4.2526834039082054e+01  4.2974802617480265e+01  4.3334738142830709e+01  4.3626882321477737e+01  4.3865942685463558e+01  4.4062852177575508e+01  4.4225899601334419e+01  4.4361477348395468e+01  4.4474588928389736e+01  4.4569201507166447e+01  4.4648495921953035e+01  4.4715047352087858e+01  4.4770958133383992e+01  4.4817956936372703e+01  4.4857473904853364e+01  4.4890698347024603e+01  4.4918623581912456e+01  4.4942082202925640e+01  4.4961774102076383e+01  4.4978288960211891e+01  4.4992124459044057e+01  4.5003701150112342e+01  4.5013374684466449e+01  4.5021445938131023e+01  4.5028169444130910e+01  4.5033760449429828e+01  4.5038400845775726e+01  4.5042244170930033e+01  4.5045419836647440e+01  4.5048036708862860e+01  4.5050186141495502e+01  4.5051944546400151e+01  4.5053375567008509e+01  4.5054531911172347e+01  4.5055456888947269e+01  4.5056185692999328e+01  4.5056746452582331e+01  4.5057161086307730e+01  4.5057445973974559e+01  4.5057612463353102e+01  4.5057667223881118e+01  4.5057612455604534e+01  4.5057445958281562e+01  4.5057161062276883e+01  4.5056746419619273e+01  4.5056185650303981e+01  4.5055456835507115e+01  4.5054531845755442e+01  4.5053375488155247e+01  4.5051944452414524e+01  4.5050186030436606e+01  4.5048036578537015e+01  4.5045419684601356e+01  4.5042243994445357e+01  4.5038400641866474e+01  4.5033760214842090e+01  4.5028169175347386e+01  4.5021445631378946e+01  4.5013374335730688e+01  4.5003700755154483e+01  4.4992124013427507e+01  4.4978288459333079e+01  4.4961773541203016e+01  4.4942081577241936e+01  4.4918622886570546e+01  4.4890697577202502e+01  4.4857473055818119e+01  4.4817956003548488e+01  4.4770957112423218e+01  4.4715046238944026e+01  4.4648494712952953e+01  4.4569200199080349e+01  4.4474587518495795e+01  4.4361475834536201e+01  4.4225897981961630e+01  4.4062850451780399e+01  4.3865940852987620e+01  4.3626880382700151e+01  4.3334736098727156e+01  4.2974800469546203e+01  4.2526831789212686e+01  4.1962223412213476e+01  4.1239275543314939e+01  4.0294953720077871e+01  3.9029818275744624e+01  3.7278996920636935e+01  3.4753399835375689e+01  3.0917388391984925e+01  2.4754547231052872e+01  1.4623513702485612e+01  0.0000000000000000e+00  0.0000000000000000e+00  1.0056283369633968e+01  1.8348679950769188e+01  2.4451363081781206e+01  2.8787199597439329e+01  3.1888516389658868e+01  3.4154116368585910e+01  3.5848355953067255e+01  3.7142820581567470e+01  3.8150266133566411e+01  3.8946539360967279e+01  3.9583999489544553e+01  4.0099715800546349e+01  4.0520553190204588e+01  4.0866397247502128e+01  4.1152248424407667e+01  4.1389613926153466e+01  4.1587453537271216e+01  4.1752835762604903e+01  4.1891401820520734e+01  4.2007699633759287e+01  4.2105428226778820e+01  4.2187619311923989e+01  4.2256774134966911e+01  4.2314967976533772e+01  4.2363930945473300e+01  4.2405111167139403e+01  4.2439724737206141e+01  4.2468795610098468e+01  4.2493187746791541e+01  4.2513631246154240e+01  4.2530743751968679e+01  4.2545048113659149e+01  4.2556987048145871e+01  4.2566935379332016e+01  4.2575210303943336e+01  4.2582080036069350e+01  4.2587771109462729e+01  4.2592474560441374e+01  4.2596351170749479e+01  4.2599535915790547e+01  4.2602141736889443e+01  4.2604262734941734e+01  4.2605976865652096e+01  4.2607348202579900e+01  4.2608428822651938e+01  4.2609260359108056e+01  4.2609875258579983e+01  4.2610297771829131e+01  4.2610544701324940e+01  4.2610625923116956e+01  4.2610544695170255e+01  4.2610297759351141e+01  4.2609875239439816e+01  4.2609260332792971e+01  4.2608428788470611e+01  4.2607348159655899e+01  4.2605976812916225e+01  4.2604262671123784e+01  4.2602141660509247e+01  4.2599535825148784e+01  4.2596351063919151e+01  4.2592474435259845e+01  4.2587770963525607e+01  4.2582079866725870e+01  4.2575210108295209e+01  4.2566935154234898e+01  4.2556986790215426e+01  4.2545047819281478e+01  4.2530743417316089e+01  4.2513630867206736e+01  4.2493187319364303e+01  4.2468795129875716e+01  4.2439724199781381e+01  4.2405110568061751e+01  4.2363930280299527e+01  4.2314967240885373e+01  4.2256773324590824e+01  4.2187618422756124e+01  4.2105427255008230e+01  4.2007698575890558e+01  4.1891400673433168e+01  4.1752834523604150e+01  4.1587452204131267e+01  4.1389612497144640e+01  4.1152246898307112e+01  4.0866395623581461e+01  4.0520551468190114e+01  4.0099713980545744e+01  3.9583997571931725e+01  3.8946537346216786e+01  3.8150264022023492e+01  3.7142818373134354e+01  3.5848353646776850e+01  3.4154113962019977e+01  3.1888513878157863e+01  2.8787196973099118e+01  2.4451360332573437e+01  1.8348677061450164e+01  1.0056280326059149e+01  0.0000000000000000e+00  0.0000000000000000e+00  7.5546106329426932e+00  1.4272512912749045e+01  1.9756477347216578e+01  2.4033569643749395e+01  2.7317911026462660e+01  2.9843114651788557e+01  3.1801841211016011e+01  3.3338510823225533e+01  3.4557996797686741e+01  3.5536085289054597e+01  3.6327934544374209e+01  3.6974187310118268e+01  3.7505220231327762e+01  3.7944069326574557e+01  3.8308450466008374e+01  3.8612167907888740e+01  3.8866108283062587e+01  3.9078951486087263e+01  3.9257686108293967e+01  3.9407988247263106e+01  3.9534503591716167e+01  3.9641060152370251e+01  3.9730830641796430e+01  3.9806457856658582e+01  3.9870152556941619e+01  3.9923770670403819e+01  3.9968874786869200e+01  4.0006783589948363e+01  4.0038611933109514e+01  4.0065303588366767e+01  4.0087658201513641e+01  4.0106353624470550e+01  4.0121964525917001e+01  4.0134977979983717e+01  4.0145806581016615e+01  4.0154799517164726e+01  4.0162251947318467e+01  4.0168412957859495e+01  4.0173492322737687e+01  4.0177666248843941e+01  4.0181082255748478e+01  4.0183863312547786e+01  4.0186111333269231e+01  4.0187910114841252e+01  4.0189327787159797e+01  4.0190418832585109e+01  4.0191225721759878e+01  4.0191780203540723e+01  4.0192104278756041e+01  4.0192210880187844e+01  4.0192104274407754e+01  4.0191780194703547e+01  4.0191225708150789e+01  4.0190418813774997e+01  4.0189327762568162e+01  4.0187910083729420e+01  4.0186111294732086e+01  4.0183863265504677e+01  4.0181082198933062e+01  4.0177666180794184e+01  4.0173492241785446e+01  4.0168412862121187e+01  4.0162251834686373e+01  4.0154799385300940e+01  4.0145806427348319e+01  4.0134977801702426e+01  4.0121964319981068e+01  4.0106353387612408e+01  4.0087657930251716e+01  4.0065303279023254e+01  4.0038611581833578e+01  4.0006783192746184e+01  3.9968874339639534e+01  3.9923770168980234e+01  3.9870151997139871e+01  3.9806457234328995e+01  3.9730829952880065e+01  3.9641059392957189e+01  3.9534502758104175e+01  3.9407987336014372e+01  3.9257685116287135e+01  3.9078950410561639e+01  3.8866107121650977e+01  3.8612166658634777e+01  3.8308449127364085e+01  3.7944067897372754e+01  3.7505218710724257e+01  3.6974185697496949e+01  3.6327932839207293e+01  3.5536083490709231e+01  3.4557994905166474e+01  3.3338508834831899e+01  3.1801839123913457e+01  2.9843112461457913e+01  2.7317908726045900e+01  2.4033567223358162e+01  1.9756474793431451e+01  1.4272510208573134e+01  7.5546077572810253e+00  0.0000000000000000e+00  0.0000000000000000e+00  5.9822880522535176e+00  1.1510537654613655e+01  1.6301758411346846e+01  2.0280184697255208e+01  2.3507614013405870e+01  2.6101311102018244e+01  2.8183619582008109e+01  2.9861129130080919e+01  3.1219914966230146e+01  3.2327240499569719e+01  3.3235043852793012e+01  3.3983381596835684e+01  3.4603283491430403e+01  3.5118961409619999e+01  3.5549468843922178e+01  3.5909933752935238e+01  3.6212472861444873e+01  3.6466872072402914e+01  3.6681096056540596e+01  3.6861672965717958e+01  3.7013987452441874e+01  3.7142505924927740e+01  3.7250951339995758e+01  3.7342440107254617e+01  3.7419590300071405e+01  3.7484607946535846e+01  3.7539356427120239e+01  3.7585412738434542e+01  3.7624113456593925e+01  3.7656592552511114e+01  3.7683812706696152e+01  3.7706591394559048e+01  3.7725622730293765e+01  3.7741495843432403e+01  3.7754710399203070e+01  3.7765689748893223e+01  3.7774792099968167e+01  3.7782320020693440e+01  3.7788528535239493e+01  3.7793632018816062e+01  3.7797810065368012e+01  3.7801212470563669e+01  3.7803963448548451e+01  3.7806165180950032e+01  3.7807900779933014e+01  3.7809236732959789e+01  3.7810224884738730e+01  3.7810904001176667e+01  3.7811300950639492e+01  3.7811431529170100e+01  3.7811300948284263e+01  3.7810903996354114e+01  3.7810224877222488e+01  3.7809236722405394e+01  3.7807900765871807e+01  3.7806165162781653e+01  3.7803963425531485e+01  3.7801212441805234e+01  3.7797810029812148e+01  3.7793631975231541e+01  3.7788528482207496e+01  3.7782319956595479e+01  3.7774792022974914e+01  3.7765689656954777e+01  3.7754710290041352e+01  3.7741495714536356e+01  3.7725622578918198e+01  3.7706591217727734e+01  3.7683812501209680e+01  3.7656592314960406e+01  3.7624113183379670e+01  3.7585412425792946e+01  3.7539356071155098e+01  3.7484607543257113e+01  3.7419589845439631e+01  3.7342439597230388e+01  3.7250950770593363e+01  3.7142505292271210e+01  3.7013986752821438e+01  3.6861672195644893e+01  3.6681095212796777e+01  3.6466871152082575e+01  3.6212471861984092e+01  3.5909932672125052e+01  3.5549467679900602e+01  3.5118960160837716e+01  3.4603282156584001e+01  3.3983380174762651e+01  3.3235042342320831e+01  3.2327238899311517e+01  3.1219913274318120e+01  2.9861127343828411e+01  2.8183617697493283e+01  2.6101309113588162e+01  2.3507611913116534e+01  2.0280182474291301e+01  1.6301756051474445e+01  1.1510535139585162e+01  5.9822853586757043e+00  0.0000000000000000e+00  0.0000000000000000e+00  4.8996511072702766e+00  9.5279744727833329e+00  1.3689687419103766e+01  1.7295135659922540e+01  2.0342477925324921e+01  2.2881471117963670e+01  2.4982375120589680e+01  2.6717125776579845e+01  2.8150580854370681e+01  2.9337727432512487e+01  3.0323763979563541e+01  3.1145300819162117e+01  3.1831827714329268e+01  3.2407091839700719e+01  3.2890268028851587e+01  3.3296906842053254e+01  3.3639684986553014e+01  3.3928992943909719e+01  3.4173393455530345e+01  3.4379979479887218e+01  3.4554654583513312e+01  3.4702353659845812e+01  3.4827217712009912e+01  3.4932733169175279e+01  3.5021843697612702e+01  3.5097040563706535e+01  3.5160436169111996e+01  3.5213824295352481e+01  3.5258729778554724e+01  3.5296449717857918e+01  3.5328087853085570e+01  3.5354583391080510e+01  3.5376735287798581e+01  3.5395222784102423e+01  3.5410622831734663e+01  3.5423424920636762e+01  3.5434043720955536e+01  3.5442829876236289e+01  3.5450079223518031e+01  3.5456040667597811e+01  3.5460922897783412e+01  3.5464900103838509e+01  3.5468116821890085e+01  3.5470692019532102e+01  3.5472722511242090e+01  3.5474285779763314e+01  3.5475442265696046e+01  3.5476237175718659e+01  3.5476701849248101e+01  3.5476854713647519e+01  3.5476701849044645e+01  3.5476237175228242e+01  3.5475442264749432e+01  3.5474285778100864e+01  3.5472722508507069e+01  3.5470692015261911e+01  3.5468116815505411e+01  3.5464900094631290e+01  3.5460922884902992e+01  3.5456040650036300e+01  3.5450079200095004e+01  3.5442829845583780e+01  3.5434043681503113e+01  3.5423424870597913e+01  3.5410622769095148e+01  3.5395222706611179e+01  3.5376735192962016e+01  3.5354583276161001e+01  3.5328087715104886e+01  3.5296449553606521e+01  3.5258729584607060e+01  3.5213824068089011e+01  3.5160435904748326e+01  3.5097040258329457e+01  3.5021843347222607e+01  3.4932732769734763e+01  3.4827217259497083e+01  3.4702353150310685e+01  3.4554654013135668e+01  3.4379978845033001e+01  3.4173392752803522e+01  3.3928992170196302e+01  3.3639684139053159e+01  3.3296905918296346e+01  3.2890267026690260e+01  3.2407090757277487e+01  3.1831826550010671e+01  3.1145299571434052e+01  3.0323762646881299e+01  2.9337726013099587e+01  2.8150579345959997e+01  2.6717124176092181e+01  2.4982373423748019e+01  2.2881469318846232e+01  2.0342476015869035e+01  1.7295133629396084e+01  1.3689685253544324e+01  9.5279721543442690e+00  4.8996486133325483e+00  0.0000000000000000e+00  0.0000000000000000e+00  4.1053096311816555e+00  8.0365380932049426e+00  1.1657110719924521e+01  1.4887358036310092e+01  1.7702142460200069e+01  2.0115697517182365e+01  2.2164432020702634e+01  2.3893620557266392e+01  2.5349174620909842e+01  2.6573438138600938e+01  2.7603533560970185e+01  2.8471099989574551e+01  2.9202689212480792e+01  2.9820409842666059e+01  3.0342612895734952e+01  3.0784526231112956e+01  3.1158804514656083e+01  3.1475989828607641e+01  3.1744890322916813e+01  3.1972888500528764e+01  3.2166191167987456e+01  3.2330031951949401e+01  3.2468835646094739e+01  3.2586351996257854e+01  3.2685765050711098e+01  3.2769782955931127e+01  3.2840712062740380e+01  3.2900518396167882e+01  3.2950878900952787e+01  3.2993224370826752e+01  3.3028775575266671e+01  3.3058573788884736e+01  3.3083506687189669e+01  3.3104330383205784e+01  3.3121688230722341e+01  3.3136126902681490e+01  3.3148110160364290e+01  3.3158030655144685e+01  3.3166220045434116e+01  3.3172957663761260e+01  3.3178477930193424e+01  3.3182976676538615e+01  3.3186616519446702e+01  3.3189531398459195e+01  3.3191830376317412e+01  3.3193600782693473e+01  3.3194910768389533e+01  3.3195811324498159e+01  3.3196337809668840e+01  3.3196511018181873e+01  3.3196337811746062e+01  3.3195811328597770e+01  3.3194910774399233e+01  3.3193600790438211e+01  3.3191830385551562e+01  3.3189531408856460e+01  3.3186616530587450e+01  3.3182976687895618e+01  3.3178477941115460e+01  3.3172957673455464e+01  3.3166220052947345e+01  3.3158030659344540e+01  3.3148110159920151e+01  3.3136126896046491e+01  3.3121688216116887e+01  3.3104330358603576e+01  3.3083506650307022e+01  3.3058573737174179e+01  3.3028775505915583e+01  3.2993224280762199e+01  3.2950878786852861e+01  3.2900518254480573e+01  3.2840711889709908e+01  3.2769782747632554e+01  3.2685764803092226e+01  3.2586351705188356e+01  3.2468835307421308e+01  3.2330031561555217e+01  3.2166190721854228e+01  3.1972887994798413e+01  3.1744889753949842e+01  3.1475989193034096e+01  3.1158803809415442e+01  3.0784525453477553e+01  3.0342612043312389e+01  2.9820408913374674e+01  2.9202688204492876e+01  2.8471098901221389e+01  2.7603532390603647e+01  2.6573436884406298e+01  2.5349173280665827e+01  2.3893619128050151e+01  2.2164430498540341e+01  2.0115695896649431e+01  1.7702140733980009e+01  1.4887356194720288e+01  1.1657108750410158e+01  8.0365359797910259e+00  4.1053073538702511e+00  0.0000000000000000e+00  0.0000000000000000e+00  3.4949838285086141e+00  6.8720979949451957e+00  1.0033551803771863e+01  1.2913903383035255e+01  1.5481846562800870e+01  1.7734232905040354e+01  1.9687035621237577e+01  2.1366860050381810e+01  2.2804604237260801e+01  2.4031421122482911e+01  2.5076493676812273e+01  2.5966023544920329e+01  2.6722944072566435e+01  2.7367022534066024e+01  2.7915144782614131e+01  2.8381664514837549e+01  2.8778755074503291e+01  2.9116734344626149e+01  2.9404351327156235e+01  2.9649032410554792e+01  2.9857089821855567e