<?xml version="1.0"?>
<VTKFile type="UnstructuredGrid"  version="0.1"  >
<UnstructuredGrid>
<Piece  NumberOfPoints="10201" NumberOfCells="20000">
<Points>
<DataArray  type="Float64"  NumberOfComponents="3"  format="ascii">0 0 0  0.01 0 0  0.02 0 0  0.03 0 0  0.04 0 0  0.05 0 0  0.06 0 0  0.07000000000000001 0 0  0.08 0 0  0.09 0 0  0.1 0 0  0.11 0 0  0.12 0 0  0.13 0 0  0.14 0 0  0.15 0 0  0.16 0 0  0.17 0 0  0.18 0 0  0.19 0 0  0.2 0 0  0.21 0 0  0.22 0 0  0.23 0 0  0.24 0 0  0.25 0 0  0.26 0 0  0.27 0 0  0.28 0 0  0.29 0 0  0.3 0 0  0.31 0 0  0.32 0 0  0.33 0 0  0.34 0 0  0.35 0 0  0.36 0 0  0.37 0 0  0.38 0 0  0.39 0 0  0.4 0 0  0.41 0 0  0.42 0 0  0.43 0 0  0.44 0 0  0.45 0 0  0.46 0 0  0.47 0 0  0.48 0 0  0.49 0 0  0.5 0 0  0.51 0 0  0.52 0 0  0.53 0 0  0.54 0 0  0.55 0 0  0.5600000000000001 0 0  0.57 0 0  0.58 0 0  0.59 0 0  0.6 0 0  0.61 0 0  0.62 0 0  0.63 0 0  0.64 0 0  0.65 0 0  0.66 0 0  0.67 0 0  0.68 0 0  0.6899999999999999 0 0  0.7 0 0  0.71 0 0  0.72 0 0  0.73 0 0  0.74 0 0  0.75 0 0  0.76 0 0  0.77 0 0  0.78 0 0  0.79 0 0  0.8 0 0  0.8100000000000001 0 0  0.82 0 0  0.83 0 0  0.84 0 0  0.85 0 0  0.86 0 0  0.87 0 0  0.88 0 0  0.89 0 0  0.9 0 0  0.91 0 0  0.92 0 0  0.93 0 0  0.9399999999999999 0 0  0.95 0 0  0.96 0 0  0.97 0 0  0.98 0 0  0.99 0 0  1 0 0  0 0.01 0  0.01 0.01 0  0.02 0.01 0  0.03 0.01 0  0.04 0.01 0  0.05 0.01 0  0.06 0.01 0  0.07000000000000001 0.01 0  0.08 0.01 0  0.09 0.01 0  0.1 0.01 0  0.11 0.01 0  0.12 0.01 0  0.13 0.01 0  0.14 0.01 0  0.15 0.01 0  0.16 0.01 0  0.17 0.01 0  0.18 0.01 0  0.19 0.01 0  0.2 0.01 0  0.21 0.01 0  0.22 0.01 0  0.23 0.01 0  0.24 0.01 0  0.25 0.01 0  0.26 0.01 0  0.27 0.01 0  0.28 0.01 0  0.29 0.01 0  0.3 0.01 0  0.31 0.01 0  0.32 0.01 0  0.33 0.01 0  0.34 0.01 0  0.35 0.01 0  0.36 0.01 0  0.37 0.01 0  0.38 0.01 0  0.39 0.01 0  0.4 0.01 0  0.41 0.01 0  0.42 0.01 0  0.43 0.01 0  0.44 0.01 0  0.45 0.01 0  0.46 0.01 0  0.47 0.01 0  0.48 0.01 0  0.49 0.01 0  0.5 0.01 0  0.51 0.01 0  0.52 0.01 0  0.53 0.01 0  0.54 0.01 0  0.55 0.01 0  0.5600000000000001 0.01 0  0.57 0.01 0  0.58 0.01 0  0.59 0.01 0  0.6 0.01 0  0.61 0.01 0  0.62 0.01 0  0.63 0.01 0  0.64 0.01 0  0.65 0.01 0  0.66 0.01 0  0.67 0.01 0  0.68 0.01 0  0.6899999999999999 0.01 0  0.7 0.01 0  0.71 0.01 0  0.72 0.01 0  0.73 0.01 0  0.74 0.01 0  0.75 0.01 0  0.76 0.01 0  0.77 0.01 0  0.78 0.01 0  0.79 0.01 0  0.8 0.01 0  0.8100000000000001 0.01 0  0.82 0.01 0  0.83 0.01 0  0.84 0.01 0  0.85 0.01 0  0.86 0.01 0  0.87 0.01 0  0.88 0.01 0  0.89 0.01 0  0.9 0.01 0  0.91 0.01 0  0.92 0.01 0  0.93 0.01 0  0.9399999999999999 0.01 0  0.95 0.01 0  0.96 0.01 0  0.97 0.01 0  0.98 0.01 0  0.99 0.01 0  1 0.01 0  0 0.02 0  0.01 0.02 0  0.02 0.02 0  0.03 0.02 0  0.04 0.02 0  0.05 0.02 0  0.06 0.02 0  0.07000000000000001 0.02 0  0.08 0.02 0  0.09 0.02 0  0.1 0.02 0  0.11 0.02 0  0.12 0.02 0  0.13 0.02 0  0.14 0.02 0  0.15 0.02 0  0.16 0.02 0  0.17 0.02 0  0.18 0.02 0  0.19 0.02 0  0.2 0.02 0  0.21 0.02 0  0.22 0.02 0  0.23 0.02 0  0.24 0.02 0  0.25 0.02 0  0.26 0.02 0  0.27 0.02 0  0.28 0.02 0  0.29 0.02 0  0.3 0.02 0  0.31 0.02 0  0.32 0.02 0  0.33 0.02 0  0.34 0.02 0  0.35 0.02 0  0.36 0.02 0  0.37 0.02 0  0.38 0.02 0  0.39 0.02 0  0.4 0.02 0  0.41 0.02 0  0.42 0.02 0  0.43 0.02 0  0.44 0.02 0  0.45 0.02 0  0.46 0.02 0  0.47 0.02 0  0.48 0.02 0  0.49 0.02 0  0.5 0.02 0  0.51 0.02 0  0.52 0.02 0  0.53 0.02 0  0.54 0.02 0  0.55 0.02 0  0.5600000000000001 0.02 0  0.57 0.02 0  0.58 0.02 0  0.59 0.02 0  0.6 0.02 0  0.61 0.02 0  0.62 0.02 0  0.63 0.02 0  0.64 0.02 0  0.65 0.02 0  0.66 0.02 0  0.67 0.02 0  0.68 0.02 0  0.6899999999999999 0.02 0  0.7 0.02 0  0.71 0.02 0  0.72 0.02 0  0.73 0.02 0  0.74 0.02 0  0.75 0.02 0  0.76 0.02 0  0.77 0.02 0  0.78 0.02 0  0.79 0.02 0  0.8 0.02 0  0.8100000000000001 0.02 0  0.82 0.02 0  0.83 0.02 0  0.84 0.02 0  0.85 0.02 0  0.86 0.02 0  0.87 0.02 0  0.88 0.02 0  0.89 0.02 0  0.9 0.02 0  0.91 0.02 0  0.92 0.02 0  0.93 0.02 0  0.9399999999999999 0.02 0  0.95 0.02 0  0.96 0.02 0  0.97 0.02 0  0.98 0.02 0  0.99 0.02 0  1 0.02 0  0 0.03 0  0.01 0.03 0  0.02 0.03 0  0.03 0.03 0  0.04 0.03 0  0.05 0.03 0  0.06 0.03 0  0.07000000000000001 0.03 0  0.08 0.03 0  0.09 0.03 0  0.1 0.03 0  0.11 0.03 0  0.12 0.03 0  0.13 0.03 0  0.14 0.03 0  0.15 0.03 0  0.16 0.03 0  0.17 0.03 0  0.18 0.03 0  0.19 0.03 0  0.2 0.03 0  0.21 0.03 0  0.22 0.03 0  0.23 0.03 0  0.24 0.03 0  0.25 0.03 0  0.26 0.03 0  0.27 0.03 0  0.28 0.03 0  0.29 0.03 0  0.3 0.03 0  0.31 0.03 0  0.32 0.03 0  0.33 0.03 0  0.34 0.03 0  0.35 0.03 0  0.36 0.03 0  0.37 0.03 0  0.38 0.03 0  0.39 0.03 0  0.4 0.03 0  0.41 0.03 0  0.42 0.03 0  0.43 0.03 0  0.44 0.03 0  0.45 0.03 0  0.46 0.03 0  0.47 0.03 0  0.48 0.03 0  0.49 0.03 0  0.5 0.03 0  0.51 0.03 0  0.52 0.03 0  0.53 0.03 0  0.54 0.03 0  0.55 0.03 0  0.5600000000000001 0.03 0  0.57 0.03 0  0.58 0.03 0  0.59 0.03 0  0.6 0.03 0  0.61 0.03 0  0.62 0.03 0  0.63 0.03 0  0.64 0.03 0  0.65 0.03 0  0.66 0.03 0  0.67 0.03 0  0.68 0.03 0  0.6899999999999999 0.03 0  0.7 0.03 0  0.71 0.03 0  0.72 0.03 0  0.73 0.03 0  0.74 0.03 0  0.75 0.03 0  0.76 0.03 0  0.77 0.03 0  0.78 0.03 0  0.79 0.03 0  0.8 0.03 0  0.8100000000000001 0.03 0  0.82 0.03 0  0.83 0.03 0  0.84 0.03 0  0.85 0.03 0  0.86 0.03 0  0.87 0.03 0  0.88 0.03 0  0.89 0.03 0  0.9 0.03 0  0.91 0.03 0  0.92 0.03 0  0.93 0.03 0  0.9399999999999999 0.03 0  0.95 0.03 0  0.96 0.03 0  0.97 0.03 0  0.98 0.03 0  0.99 0.03 0  1 0.03 0  0 0.04 0  0.01 0.04 0  0.02 0.04 0  0.03 0.04 0  0.04 0.04 0  0.05 0.04 0  0.06 0.04 0  0.07000000000000001 0.04 0  0.08 0.04 0  0.09 0.04 0  0.1 0.04 0  0.11 0.04 0  0.12 0.04 0  0.13 0.04 0  0.14 0.04 0  0.15 0.04 0  0.16 0.04 0  0.17 0.04 0  0.18 0.04 0  0.19 0.04 0  0.2 0.04 0  0.21 0.04 0  0.22 0.04 0  0.23 0.04 0  0.24 0.04 0  0.25 0.04 0  0.26 0.04 0  0.27 0.04 0  0.28 0.04 0  0.29 0.04 0  0.3 0.04 0  0.31 0.04 0  0.32 0.04 0  0.33 0.04 0  0.34 0.04 0  0.35 0.04 0  0.36 0.04 0  0.37 0.04 0  0.38 0.04 0  0.39 0.04 0  0.4 0.04 0  0.41 0.04 0  0.42 0.04 0  0.43 0.04 0  0.44 0.04 0  0.45 0.04 0  0.46 0.04 0  0.47 0.04 0  0.48 0.04 0  0.49 0.04 0  0.5 0.04 0  0.51 0.04 0  0.52 0.04 0  0.53 0.04 0  0.54 0.04 0  0.55 0.04 0  0.5600000000000001 0.04 0  0.57 0.04 0  0.58 0.04 0  0.59 0.04 0  0.6 0.04 0  0.61 0.04 0  0.62 0.04 0  0.63 0.04 0  0.64 0.04 0  0.65 0.04 0  0.66 0.04 0  0.67 0.04 0  0.68 0.04 0  0.6899999999999999 0.04 0  0.7 0.04 0  0.71 0.04 0  0.72 0.04 0  0.73 0.04 0  0.74 0.04 0  0.75 0.04 0  0.76 0.04 0  0.77 0.04 0  0.78 0.04 0  0.79 0.04 0  0.8 0.04 0  0.8100000000000001 0.04 0  0.82 0.04 0  0.83 0.04 0  0.84 0.04 0  0.85 0.04 0  0.86 0.04 0  0.87 0.04 0  0.88 0.04 0  0.89 0.04 0  0.9 0.04 0  0.91 0.04 0  0.92 0.04 0  0.93 0.04 0  0.9399999999999999 0.04 0  0.95 0.04 0  0.96 0.04 0  0.97 0.04 0  0.98 0.04 0  0.99 0.04 0  1 0.04 0  0 0.05 0  0.01 0.05 0  0.02 0.05 0  0.03 0.05 0  0.04 0.05 0  0.05 0.05 0  0.06 0.05 0  0.07000000000000001 0.05 0  0.08 0.05 0  0.09 0.05 0  0.1 0.05 0  0.11 0.05 0  0.12 0.05 0  0.13 0.05 0  0.14 0.05 0  0.15 0.05 0  0.16 0.05 0  0.17 0.05 0  0.18 0.05 0  0.19 0.05 0  0.2 0.05 0  0.21 0.05 0  0.22 0.05 0  0.23 0.05 0  0.24 0.05 0  0.25 0.05 0  0.26 0.05 0  0.27 0.05 0  0.28 0.05 0  0.29 0.05 0  0.3 0.05 0  0.31 0.05 0  0.32 0.05 0  0.33 0.05 0  0.34 0.05 0  0.35 0.05 0  0.36 0.05 0  0.37 0.05 0  0.38 0.05 0  0.39 0.05 0  0.4 0.05 0  0.41 0.05 0  0.42 0.05 0  0.43 0.05 0  0.44 0.05 0  0.45 0.05 0  0.46 0.05 0  0.47 0.05 0  0.48 0.05 0  0.49 0.05 0  0.5 0.05 0  0.51 0.05 0  0.52 0.05 0  0.53 0.05 0  0.54 0.05 0  0.55 0.05 0  0.5600000000000001 0.05 0  0.57 0.05 0  0.58 0.05 0  0.59 0.05 0  0.6 0.05 0  0.61 0.05 0  0.62 0.05 0  0.63 0.05 0  0.64 0.05 0  0.65 0.05 0  0.66 0.05 0  0.67 0.05 0  0.68 0.05 0  0.6899999999999999 0.05 0  0.7 0.05 0  0.71 0.05 0  0.72 0.05 0  0.73 0.05 0  0.74 0.05 0  0.75 0.05 0  0.76 0.05 0  0.77 0.05 0  0.78 0.05 0  0.79 0.05 0  0.8 0.05 0  0.8100000000000001 0.05 0  0.82 0.05 0  0.83 0.05 0  0.84 0.05 0  0.85 0.05 0  0.86 0.05 0  0.87 0.05 0  0.88 0.05 0  0.89 0.05 0  0.9 0.05 0  0.91 0.05 0  0.92 0.05 0  0.93 0.05 0  0.9399999999999999 0.05 0  0.95 0.05 0  0.96 0.05 0  0.97 0.05 0  0.98 0.05 0  0.99 0.05 0  1 0.05 0  0 0.06 0  0.01 0.06 0  0.02 0.06 0  0.03 0.06 0  0.04 0.06 0  0.05 0.06 0  0.06 0.06 0  0.07000000000000001 0.06 0  0.08 0.06 0  0.09 0.06 0  0.1 0.06 0  0.11 0.06 0  0.12 0.06 0  0.13 0.06 0  0.14 0.06 0  0.15 0.06 0  0.16 0.06 0  0.17 0.06 0  0.18 0.06 0  0.19 0.06 0  0.2 0.06 0  0.21 0.06 0  0.22 0.06 0  0.23 0.06 0  0.24 0.06 0  0.25 0.06 0  0.26 0.06 0  0.27 0.06 0  0.28 0.06 0  0.29 0.06 0  0.3 0.06 0  0.31 0.06 0  0.32 0.06 0  0.33 0.06 0  0.34 0.06 0  0.35 0.06 0  0.36 0.06 0  0.37 0.06 0  0.38 0.06 0  0.39 0.06 0  0.4 0.06 0  0.41 0.06 0  0.42 0.06 0  0.43 0.06 0  0.44 0.06 0  0.45 0.06 0  0.46 0.06 0  0.47 0.06 0  0.48 0.06 0  0.49 0.06 0  0.5 0.06 0  0.51 0.06 0  0.52 0.06 0  0.53 0.06 0  0.54 0.06 0  0.55 0.06 0  0.5600000000000001 0.06 0  0.57 0.06 0  0.58 0.06 0  0.59 0.06 0  0.6 0.06 0  0.61 0.06 0  0.62 0.06 0  0.63 0.06 0  0.64 0.06 0  0.65 0.06 0  0.66 0.06 0  0.67 0.06 0  0.68 0.06 0  0.6899999999999999 0.06 0  0.7 0.06 0  0.71 0.06 0  0.72 0.06 0  0.73 0.06 0  0.74 0.06 0  0.75 0.06 0  0.76 0.06 0  0.77 0.06 0  0.78 0.06 0  0.79 0.06 0  0.8 0.06 0  0.8100000000000001 0.06 0  0.82 0.06 0  0.83 0.06 0  0.84 0.06 0  0.85 0.06 0  0.86 0.06 0  0.87 0.06 0  0.88 0.06 0  0.89 0.06 0  0.9 0.06 0  0.91 0.06 0  0.92 0.06 0  0.93 0.06 0  0.9399999999999999 0.06 0  0.95 0.06 0  0.96 0.06 0  0.97 0.06 0  0.98 0.06 0  0.99 0.06 0  1 0.06 0  0 0.07000000000000001 0  0.01 0.07000000000000001 0  0.02 0.07000000000000001 0  0.03 0.07000000000000001 0  0.04 0.07000000000000001 0  0.05 0.07000000000000001 0  0.06 0.07000000000000001 0  0.07000000000000001 0.07000000000000001 0  0.08 0.07000000000000001 0  0.09 0.07000000000000001 0  0.1 0.07000000000000001 0  0.11 0.07000000000000001 0  0.12 0.07000000000000001 0  0.13 0.07000000000000001 0  0.14 0.07000000000000001 0  0.15 0.07000000000000001 0  0.16 0.07000000000000001 0  0.17 0.0700
[...]
<PointData  Scalars="f_17"> 
<DataArray  type="Float64"  Name="f_17"  format="ascii">0.0000000000000000e+00  5.0000000000000000e+01  5.0000000000000000e+01  5.0000000000000000e+01  5.0000000000000000e+01  5.0000000000000000e+01  5.0000000000000000e+01  5.0000000000000000e+01  5.0000000000000000e+01  5.0000000000000000e+01  5.0000000000000000e+01  5.0000000000000000e+01  5.0000000000000000e+01  5.0000000000000000e+01  5.0000000000000000e+01  5.0000000000000000e+01  5.0000000000000000e+01  5.0000000000000000e+01  5.0000000000000000e+01  5.0000000000000000e+01  5.0000000000000000e+01  5.0000000000000000e+01  5.0000000000000000e+01  5.0000000000000000e+01  5.0000000000000000e+01  5.0000000000000000e+01  5.0000000000000000e+01  5.0000000000000000e+01  5.0000000000000000e+01  5.0000000000000000e+01  5.0000000000000000e+01  5.0000000000000000e+01  5.0000000000000000e+01  5.0000000000000000e+01  5.0000000000000000e+01  5.0000000000000000e+01  5.0000000000000000e+01  5.0000000000000000e+01  5.0000000000000000e+01  5.0000000000000000e+01  5.0000000000000000e+01  5.0000000000000000e+01  5.0000000000000000e+01  5.0000000000000000e+01  5.0000000000000000e+01  5.0000000000000000e+01  5.0000000000000000e+01  5.0000000000000000e+01  5.0000000000000000e+01  5.0000000000000000e+01  5.0000000000000000e+01  5.0000000000000000e+01  5.0000000000000000e+01  5.0000000000000000e+01  5.0000000000000000e+01  5.0000000000000000e+01  5.0000000000000000e+01  5.0000000000000000e+01  5.0000000000000000e+01  5.0000000000000000e+01  5.0000000000000000e+01  5.0000000000000000e+01  5.0000000000000000e+01  5.0000000000000000e+01  5.0000000000000000e+01  5.0000000000000000e+01  5.0000000000000000e+01  5.0000000000000000e+01  5.0000000000000000e+01  5.0000000000000000e+01  5.0000000000000000e+01  5.0000000000000000e+01  5.0000000000000000e+01  5.0000000000000000e+01  5.0000000000000000e+01  5.0000000000000000e+01  5.0000000000000000e+01  5.0000000000000000e+01  5.0000000000000000e+01  5.0000000000000000e+01  5.0000000000000000e+01  5.0000000000000000e+01  5.0000000000000000e+01  5.0000000000000000e+01  5.0000000000000000e+01  5.0000000000000000e+01  5.0000000000000000e+01  5.0000000000000000e+01  5.0000000000000000e+01  5.0000000000000000e+01  5.0000000000000000e+01  5.0000000000000000e+01  5.0000000000000000e+01  5.0000000000000000e+01  5.0000000000000000e+01  5.0000000000000000e+01  5.0000000000000000e+01  5.0000000000000000e+01  5.0000000000000000e+01  5.0000000000000000e+01  0.0000000000000000e+00  0.0000000000000000e+00  2.4958590765638156e+01  3.5170872986040521e+01  3.9636346179951893e+01  4.2037499205332864e+01  4.3510932352813619e+01  4.4496679951163195e+01  4.5196477965642899e+01  4.5714924291046351e+01  4.6111426590960725e+01  4.6422155267122143e+01  4.6670368042014879e+01  4.6871691207645654e+01  4.7037009389356534e+01  4.7174136376439797e+01  4.7288826571484343e+01  4.7385411518334799e+01  4.7467214031105335e+01  4.7536825506986240e+01  4.7596296366437109e+01  4.7647269780940235e+01  4.7691077458138984e+01  4.7728809481418203e+01  4.7761366056827555e+01  4.7789496418676322e+01  4.7813828473811988e+01  4.7834891668260028e+01  4.7853134826950921e+01  4.7868940218688280e+01  4.7882634753942675e+01  4.7894498981418913e+01  4.7904774377592929e+01  4.7913669299813670e+01  4.7921363883573925e+01  4.7928014098335900e+01  4.7933755127075422e+01  4.7938704197778939e+01  4.7942962967172853e+01  4.7946619535627164e+01  4.7949750155759759e+01  4.7952420684532107e+01  4.7954687818684114e+01  4.7956600145519175e+01  4.7958199034833420e+01  4.7959519392806449e+01  4.7960590294647808e+01  4.7961435509510345e+01  4.7962073928464349e+01  4.7962519904051490e+01  4.7962783507990068e+01  4.7962870711910099e+01  4.7962783494482075e+01  4.7962519876910193e+01  4.7962073887439701e+01  4.7961435454228969e+01  4.7960590224614620e+01  4.7959519307407305e+01  4.7958198933338601e+01  4.7956600027087390e+01  4.7954687682367258e+01  4.7952420529281135e+01  4.7949749980431349e+01  4.7946619338991503e+01  4.7942962747922181e+01  4.7938703954537701e+01  4.7933754858410609e+01  4.7928013802769556e+01  4.7921363559595989e+01  4.7913668945896092e+01  4.7904773992204845e+01  4.7894498563042902e+01  4.7882634301091350e+01  4.7868939729921848e+01  4.7853134300895498e+01  4.7834891103625729e+01  4.7813827869411355e+01  4.7789495773442553e+01  4.7761365369832170e+01  4.7728808751888089e+01  4.7691076685472147e+01  4.7647268964719906e+01  4.7596295506444555e+01  4.7536824603210832e+01  4.7467213083752092e+01  4.7385410527828967e+01  4.7288825538472523e+01  4.7174135301786784e+01  4.7037008274138081e+01  4.6871690053135204e+01  4.6670366849664816e+01  4.6422154038536632e+01  4.6111425327858264e+01  4.5714922995207374e+01  4.5196476638832102e+01  4.4496678595003502e+01  4.3510930968550234e+01  4.2037497793292644e+01  3.9636344737971456e+01  3.5170871503523799e+01  2.4958589194494625e+01  0.0000000000000000e+00  0.0000000000000000e+00  1.4663707168067639e+01  2.4834797852382515e+01  3.1037429808244699e+01  3.4912835941752761e+01  3.7477305903380405e+01  3.9266357900444021e+01  4.0568967765326619e+01  4.1549901268209695e+01  4.2308499931321769e+01  4.2907709215775242e+01  4.3389149678158475e+01  4.3781358952740199e+01  4.4104520269099631e+01  4.4373293368452401e+01  4.4598574087817560e+01  4.4788624664194764e+01  4.4949821181056656e+01  4.5087160694279021e+01  4.5204613257389944e+01  4.5305371329940712e+01  4.5392029763839957e+01  4.5466717872330449e+01  4.5531197818477125e+01  4.5586938935801591e+01  4.5635174588774696e+01  4.5676946190235213e+01  4.5713137650579966e+01  4.5744502613745098e+01  4.5771686195139608e+01  4.5795242485388798e+01  4.5815648761330209e+01  4.5833317112616825e+01  4.5848604021893692e+01  4.5861818310673407e+01  4.5873227769188887e+01  4.5883064717884380e+01  4.5891530694602032e+01  4.5898800420510057e+01  4.5905025166191322e+01  4.5910335614730315e+01  4.5914844299401274e+01  4.5918647678378306e+01  4.5921827896824183e+01  4.5924454277037142e+01  4.5926584569507689e+01  4.5928265991333852e+01  4.5929536073142948e+01  4.5930423331217092e+01  4.5930947777713648e+01  4.5931121278552084e+01  4.5930947765569130e+01  4.5930423306812614e+01  4.5929536036248351e+01  4.5928265941605311e+01  4.5926584506489426e+01  4.5924454200163694e+01  4.5921827805423618e+01  4.5918647571675933e+01  4.5914844176523957e+01  4.5910335474711893e+01  4.5905025007978679e+01  4.5898800242970431e+01  4.5891530496530770e+01  4.5883064498014178e+01  4.5873227526199479e+01  4.5861818043202931e+01  4.5848603728550522e+01  4.5833316791992246e+01  4.5815648412012642e+01  4.5795242105978325e+01  4.5771685784262921e+01  4.5744502170071407e+01  4.5713137172837222e+01  4.5676945677226207e+01  4.5635174039392872e+01  4.5586938349046896e+01  4.5531197193470646e+01  4.5466717208328483e+01  4.5392029060246053e+01  4.5305370586316066e+01  4.5204612473461786e+01  4.5087159869945971e+01  4.4949820316390770e+01  4.4788623759439908e+01  4.4598573143383696e+01  4.4373292384904232e+01  4.4104519247139500e+01  4.3781357893183916e+01  4.3389148581902290e+01  4.2907708083751487e+01  4.2308498764439101e+01  4.1549900067271096e+01  4.0568966530911815e+01  3.9266356632729625e+01  3.7477304601841738e+01  3.4912834604630248e+01  3.1037428431592929e+01  2.4834796429166996e+01  1.4663705697003785e+01  0.0000000000000000e+00  0.0000000000000000e+00  1.0116068395837603e+01  1.8468051784682775e+01  2.4629925602824805e+01  2.9024363728387168e+01  3.2183506116872536e+01  3.4505976601411845e+01  3.6255962085730481e+01  3.7604889593269583e+01  3.8665369038584572e+01  3.9513114801504912e+01  4.0200368250071136e+01  4.0764096013513047e+01  4.1231075999362396e+01  4.1621122696465029e+01  4.1949181344335045e+01  4.2226719607095731e+01  4.2462672982328975e+01  4.2664100342019196e+01  4.2836647163494412e+01  4.2984878618522565e+01  4.3112522953464826e+01  4.3222651967521863e+01  4.3317816684320128e+01  4.3400150637443460e+01  4.3471449428913083e+01  4.3533232684924933e+01  4.3586792798812589e+01  4.3633233647393553e+01  4.3673501620048206e+01  4.3708410696713678e+01  4.3738662876307856e+01  4.3764864940418924e+01  4.3787542304002010e+01  4.3807150531602666e+01  4.3824084967727003e+01  4.3838688831734196e+01  4.3851260052720420e+01  4.3862057062309169e+01  4.3871303718708496e+01  4.3879193500657721e+01  4.3885893082598827e+01  4.3891545380823175e+01  4.3896272143130552e+01  4.3900176140703074e+01  4.3903343009672454e+01  4.3905842780658844e+01  4.3907731126925889e+01  4.3909050355370397e+01  4.3909830159063809e+01  4.3910088145249951e+01  4.3909830148397141e+01  4.3909050333930431e+01  4.3907731094499873e+01  4.3905842736928925e+01  4.3903342954217116e+01  4.3900176072999372e+01  4.3896272062556648e+01  4.3891545286661874e+01  4.3885892974041433e+01  4.3879193376808935e+01  4.3871303578591984e+01  4.3862056904873683e+01  4.3851259876847578e+01  4.3838688636246403e+01  4.3824084751396718e+01  4.3807150293162309e+01  4.3787542042155117e+01  4.3764864653851916e+01  4.3738662563702611e+01  4.3708410356760979e+01  4.3673501251461545e+01  4.3633233248923268e+01  4.3586792369260564e+01  4.3533232223158791e+01  4.3471448933880346e+01  4.3400150108185095e+01  4.3317816119982943e+01  4.3222651367369728e+01  4.3112522316888125e+01  4.2984877945045255e+01  4.2836646452778872e+01  4.2664099593867363e+01  4.2462672196679819e+01  4.2226718784018594e+01  4.1949180484017631e+01  4.1621121799195208e+01  4.1231075065503198e+01  4.0764095043469062e+01  4.0200367244244390e+01  3.9513113760237452e+01  3.8665367962084055e+01  3.7604888481510820e+01  3.6255960938323256e+01  3.4505975417420110e+01  3.2183504894567157e+01  2.9024362464940349e+01  2.4629924294110946e+01  1.8468050425950739e+01  1.0116066984001515e+01  0.0000000000000000e+00  0.0000000000000000e+00  7.6333990559796661e+00  1.4429828314531035e+01  1.9991797907841359e+01  2.4346119355008650e+01  2.7706667617519400e+01  3.0306819938034778e+01  3.2339013685400040e+01  3.3947460273282928e+01  3.5236840700495662e+01  3.6282766711338880e+01  3.7140241256517257e+01  3.7849771811178911e+01  3.8441620377311459e+01  3.8938729256055886e+01  3.9358741525387117e+01  3.9715409292585264e+01  4.0019587130169519e+01  4.0279942177627127e+01  4.0503468571442589e+01  4.0695865067785526e+01  4.0861815788512580e+01  4.1005201493540127e+01  4.1129260415139747e+01  4.1236712039249078e+01  4.1329853358616013e+01  4.1410634454106848e+01  4.1480718394277979e+01  4.1541529123287070e+01  4.1594290063299006e+01  4.1640055475474348e+01  4.1679736125840044e+01  4.1714120435585137e+01  4.1743892022664582e+01  4.1769644337154553e+01  4.1791892938256730e+01  4.1811085843122285e+01  4.1827612287314402e+01  4.1841810166893751e+01  4.1853972377759170e+01  4.1864352225284300e+01  4.1873168043685126e+01  4.1880607137853403e+01  4.1886829139017799e+01  4.1891968848348000e+01  4.1896138628579692e+01  4.1899430392190389e+01  4.1901917225044187e+01  4.1903654676309287e+01  4.1904681738482246e+01  4.1905021535244593e+01  4.1904681729394525e+01  4.1903654658034817e+01  4.1901917197385103e+01  4.1899430354850978e+01  4.1896138581167598e+01  4.1891968790376232e+01  4.1886829069906895e+01  4.1880607056934352e+01  4.1873167950202813e+01  4.1864352118401982e+01  4.1853972256563090e+01  4.1841810030398968e+01  4.1827612134471430e+01  4.1811085672824582e+01  4.1791892749348960e+01  4.1769644128441755e+01  4.1743891792922156e+01  4.1714120183569875e+01  4.1679735850301810e+01  4.1640055175168150e+01  4.1594289736997901e+01  4.1541528769795292e+01  4.1480718012443987e+01  4.1410634042836449e+01  4.1329852916884995e+01  4.1236711566115218e+01  4.1129259909753280e+01  4.1005200955153271e+01  4.0861815216486463e+01  4.0695864461595136e+01  4.0503467930678532e+01  4.0279941501993598e+01  4.0019586419478387e+01  3.9715408546745032e+01  3.9358740744386218e+01  3.8938728439939219e+01  3.8441619526148962e+01  3.7849770925025254e+01  3.7140240335359984e+01  3.6282765755033040e+01  3.5236839708681330e+01  3.3947459245281877e+01  3.2339012620085498e+01  3.0306818833671862e+01  2.7706666471580800e+01  2.4346118164003467e+01  1.9991796667263845e+01  1.4429827019049437e+01  7.6333976994440675e+00  0.0000000000000000e+00  0.0000000000000000e+00  6.0793071684696791e+00  1.1704253867590689e+01  1.6591529493910823e+01  2.0665055575923535e+01  2.3986326517564045e+01  2.6672316693931780e+01  2.8845094845686123e+01  3.0610993752383287e+01  3.2055851905521777e+01  3.3246718006526685e+01  3.4235338985268235e+01  3.5061604856321551e+01  3.5756404202683008e+01  3.6343833467247947e+01  3.6842856459779483e+01  3.7268536855371977e+01  3.7632951821060921e+01  3.7945871457983714e+01  3.8215267158284817e+01  3.8447694859596865e+01  3.8648586418430746e+01  3.8822473071814954e+01  3.8973158329445404e+01  3.9103852908796831e+01  3.9217280945847655e+01  3.9315764289184791e+01  3.9401289935541662e+01  3.9475564393843335e+01  3.9540057834948264e+01  3.9596040198882712e+01  3.9644610922391792e+01  3.9686723568866462e+01  3.9723206355782175e+01  3.9754779357045130e+01  3.9782068991269270e+01  3.9805620279035850e+01  3.9825907253120512e+01  3.9843341828491411e+01  3.9858281378381832e+01  3.9871035215017422e+01  3.9881870135695586e+01  3.9891015164647648e+01  3.9898665596757745e+01  3.9904986429463435e+01  3.9910115253012947e+01  3.9914164655908031e+01  3.9917224191209371e+01  3.9919361939925132e+01  3.9920625699554904e+01  3.9921043818691665e+01  3.9920625692133903e+01  3.9919361924990277e+01  3.9917224168575181e+01  3.9914164625297197e+01  3.9910115214057143e+01  3.9904986381705214e+01  3.9898665539651951e+01  3.9891015097564164e+01  3.9881870057922157e+01  3.9871035125763363e+01  3.9858281276782165e+01  3.9843341713611863e+01  3.9825907123963631e+01  3.9805620134547532e+01  3.9782068830346233e+01  3.9754779178543394e+01  3.9723206158526239e+01  3.9686723351659595e+01  3.9644610684026553e+01  3.9596039938152771e+01  3.9540057550660030e+01  3.9475564084828470e+01  3.9401289600669145e+01  3.9315763927373290e+01  3.9217280556077093e+01  3.9103852490119294e+01  3.8973157880994648e+01  3.8822472592814506e+01  3.8648585908199415e+01  3.8447694317552063e+01  3.8215266583942224e+01  3.7945870850953277e+01  3.7632951181038287e+01  3.7268536182124450e+01  3.6842855753126116e+01  3.6343832727032250e+01  3.5756403428737549e+01  3.5061604048422971e+01  3.4235338143081222e+01  3.3246717129534616e+01  3.2055850992942261e+01  3.0610992803066068e+01  2.8845093857991735e+01  2.6672315665592770e+01  2.3986325445536810e+01  2.0665054456251905e+01  1.6591528321623876e+01  1.1704252636592228e+01  6.0793058711872483e+00  0.0000000000000000e+00  0.0000000000000000e+00  5.0139599195188831e+00  9.7562127289516418e+00  1.4031098922590635e+01  1.7748595842209880e+01  2.0906505317874000e+01  2.3554242331727160e+01  2.5761743072228072e+01  2.7600640847878509e+01  2.9135514626525371e+01  3.0421098600840292e+01  3.1502366027487852e+01  3.2415731013395359e+01  3.3190516976120001e+01  3.3850335049606123e+01  3.4414254334260292e+01  3.4897749556886666e+01  3.5313450700279887e+01  3.5671729491114647e+01  3.5981156436562991e+01  3.6248857066286284e+01  3.6480790387629362e+01  3.6681967495075469e+01  3.6856624117056491e+01  3.7008357615620021e+01  3.7140236443786208e+01  3.7254888158513481e+01  3.7354570646360962e+01  3.7441230131722236e+01  3.7516548716206813e+01  3.7581983575660587e+01  3.7638799468383070e+01  3.7688095846997840e+01  3.7730829589415556e+01  3.7767834150764280e+01  3.7799835772674300e+01  3.7827467257418178e+01  3.7851279713498847e+01  3.7871752599870113e+01  3.7889302333148187e+01  3.7904289672203120e+01  3.7917026054544081e+01  3.7927779026746691e+01  3.7936776885115101e+01  3.7944212621514417e+01  3.7950247251818325e+01  3.7955012589890075e+01  3.7958613517804437e+01  3.7961129792619026e+01  3.7962617420994057e+01  3.7963109625006098e+01  3.7962617415314170e+01  3.7961129781171387e+01  3.7958613500413428e+01  3.7955012566293007e+01  3.7950247221666011e+01  3.7944212584372359e+01  3.7936776840464809e+01  3.7927778973987877e+01  3.7917025992996749e+01  3.7904289601110584e+01  3.7889302251680668e+01  3.7871752507129230e+01  3.7851279608522560e+01  3.7827467139186751e+01  3.7799835640117180e+01  3.7767834002767763e+01  3.7730829424831327e+01  3.7688095664652479e+01  3.7638799267088231e+01  3.7581983354223915e+01  3.7516548473443343e+01  3.7441229866466138e+01  3.7354570357477435e+01  3.7254887844910478e+01  3.7140236104425597e+01  3.7008357249527990e+01  3.6856623723332639e+01  3.6681967072900150e+01  3.6480789936268771e+01  3.6248856585094586e+01  3.5981155924981330e+01  3.5671728948665702e+01  3.5313450126558038e+01  3.4897748951542276e+01  3.4414253696977788e+01  3.3850334380074806e+01  3.3190516273996359e+01  3.2415730278256127e+01  3.1502365258772318e+01  3.0421097797780522e+01  2.9135513788063097e+01  2.7600639972567794e+01  2.5761742158123912e+01  2.3554241376261775e+01  2.0906504317726338e+01  1.7748594793173996e+01  1.4031097819438532e+01  9.7562115652543451e+00  5.0139586873493460e+00  0.0000000000000000e+00  0.0000000000000000e+00  4.2358145319445759e+00  8.2971149252949115e+00  1.2046896790144629e+01  1.5405070390658297e+01  1.8346090961377531e+01  2.0883801920841183e+01  2.3054242753280793e+01  2.4902342838317729e+01  2.6473695521739032e+01  2.7810356127852543e+01  2.8949190057365460e+01  2.9921612422672752e+01  3.0753985084257330e+01  3.1468261285606385e+01  3.2082671236491159e+01  3.2612356091731563e+01  3.3069917014895779e+01  3.3465874491671251e+01  3.3809045331632284e+01  3.4106849000155641e+01  3.4365555363894181e+01  3.4590484803920361e+01  3.4786170014567034e+01  3.4956487148047692e+01  3.5104762481597497e+01  3.5233859533816037e+01  3.5346250537177006e+01  3.5444075357209172e+01  3.5529190302083308e+01  3.5603208756948163e+01  3.5667535177236424e+01  3.5723393661042351e+01  3.5771852073869205e+01  3.5813842504771699e+01  3.5850178679614835e+01  3.5881570835831049e+01  3.5908638466689311e+01  3.5931921266272404e+01  3.5951888544878734e+01  3.5968947335145522e+01  3.5983449369278688e+01  3.5995697075370778e+01  3.6005948714328071e+01  3.6014422757169100e+01  3.6021301584429260e+01  3.6026734574324976e+01  3.6030840633576453e+01  3.6033710213854967e+01  3.6035406847299122e+01  3.6035968226091811e+01  3.6035406843421619e+01  3.6033710206015876e+01  3.6030840621607744e+01  3.6026734557974933e+01  3.6021301563362897e+01  3.6014422730968946e+01  3.6005948682494974e+01  3.5995697037325463e+01  3.5983449324363413e+01  3.5968947282626253e+01  3.5951888483948139e+01  3.5931921196053558e+01  3.5908638386240050e+01  3.5881570744149137e+01  3.5850178575644165e+01  3.5813842387409380e+01  3.5771851941973551e+01  3.5723393513441792e+01  3.5667535012739357e+01  3.5603208574353552e+01  3.5529190100191798e+01  3.5444075134834698e+01  3.5346250293158612e+01  3.5233859267029665e+01  3.5104762190967016e+01  3.4956486832555562e+01  3.4786169673263444e+01  3.4590484435930684e+01  3.4365554968424085e+01  3.4106848576493299e+01  3.3809044879147329e+01  3.3465874009809049e+01  3.3069916503167320e+01  3.2612355549697334e+01  3.2082670663738782e+01  3.1468260681720871e+01  3.0753984448783161e+01  2.9921611755066749e+01  2.8949189356939861e+01  2.7810355393707106e+01  2.6473694752681613e+01  2.4902342032773234e+01  2.3054241909189209e+01  2.0883801035545883e+01  1.8346090031506797e+01  1.5405069412000310e+01  1.2046895757511175e+01  8.2971138323600631e+00  4.2358133710418695e+00  0.0000000000000000e+00  0.0000000000000000e+00  3.6404565549341217e+00  7.1625610832671409e+00  1.0468044445404319e+01  1.3490996698901222e+01  1.6199658155259268e+01  1.8590445859720848e+01  2.0678921628440015e+01  2.2491306249041244e+01  2.4058143327643883e+01  2.5410264247984607e+01  2.6576565541319294e+01  2.7582999210682232e+01  2.8452286874468015e+01  2.9204022549364254e+01  2.9854957309975489e+01  3.0419348041974470e+01  3.0909308248676762e+01  3.1335131503367183e+01  3.1705576196216409e+01  3.2028109630692107e+01  3.2309114023922518e