<?xml version="1.0"?>
<VTKFile type="UnstructuredGrid"  version="0.1"  >
<UnstructuredGrid>
<Piece  NumberOfPoints="10201" NumberOfCells="20000">
<Points>
<DataArray  type="Float64"  NumberOfComponents="3"  format="ascii">0 0 0  0.01 0 0  0.02 0 0  0.03 0 0  0.04 0 0  0.05 0 0  0.06 0 0  0.07000000000000001 0 0  0.08 0 0  0.09 0 0  0.1 0 0  0.11 0 0  0.12 0 0  0.13 0 0  0.14 0 0  0.15 0 0  0.16 0 0  0.17 0 0  0.18 0 0  0.19 0 0  0.2 0 0  0.21 0 0  0.22 0 0  0.23 0 0  0.24 0 0  0.25 0 0  0.26 0 0  0.27 0 0  0.28 0 0  0.29 0 0  0.3 0 0  0.31 0 0  0.32 0 0  0.33 0 0  0.34 0 0  0.35 0 0  0.36 0 0  0.37 0 0  0.38 0 0  0.39 0 0  0.4 0 0  0.41 0 0  0.42 0 0  0.43 0 0  0.44 0 0  0.45 0 0  0.46 0 0  0.47 0 0  0.48 0 0  0.49 0 0  0.5 0 0  0.51 0 0  0.52 0 0  0.53 0 0  0.54 0 0  0.55 0 0  0.5600000000000001 0 0  0.57 0 0  0.58 0 0  0.59 0 0  0.6 0 0  0.61 0 0  0.62 0 0  0.63 0 0  0.64 0 0  0.65 0 0  0.66 0 0  0.67 0 0  0.68 0 0  0.6899999999999999 0 0  0.7 0 0  0.71 0 0  0.72 0 0  0.73 0 0  0.74 0 0  0.75 0 0  0.76 0 0  0.77 0 0  0.78 0 0  0.79 0 0  0.8 0 0  0.8100000000000001 0 0  0.82 0 0  0.83 0 0  0.84 0 0  0.85 0 0  0.86 0 0  0.87 0 0  0.88 0 0  0.89 0 0  0.9 0 0  0.91 0 0  0.92 0 0  0.93 0 0  0.9399999999999999 0 0  0.95 0 0  0.96 0 0  0.97 0 0  0.98 0 0  0.99 0 0  1 0 0  0 0.01 0  0.01 0.01 0  0.02 0.01 0  0.03 0.01 0  0.04 0.01 0  0.05 0.01 0  0.06 0.01 0  0.07000000000000001 0.01 0  0.08 0.01 0  0.09 0.01 0  0.1 0.01 0  0.11 0.01 0  0.12 0.01 0  0.13 0.01 0  0.14 0.01 0  0.15 0.01 0  0.16 0.01 0  0.17 0.01 0  0.18 0.01 0  0.19 0.01 0  0.2 0.01 0  0.21 0.01 0  0.22 0.01 0  0.23 0.01 0  0.24 0.01 0  0.25 0.01 0  0.26 0.01 0  0.27 0.01 0  0.28 0.01 0  0.29 0.01 0  0.3 0.01 0  0.31 0.01 0  0.32 0.01 0  0.33 0.01 0  0.34 0.01 0  0.35 0.01 0  0.36 0.01 0  0.37 0.01 0  0.38 0.01 0  0.39 0.01 0  0.4 0.01 0  0.41 0.01 0  0.42 0.01 0  0.43 0.01 0  0.44 0.01 0  0.45 0.01 0  0.46 0.01 0  0.47 0.01 0  0.48 0.01 0  0.49 0.01 0  0.5 0.01 0  0.51 0.01 0  0.52 0.01 0  0.53 0.01 0  0.54 0.01 0  0.55 0.01 0  0.5600000000000001 0.01 0  0.57 0.01 0  0.58 0.01 0  0.59 0.01 0  0.6 0.01 0  0.61 0.01 0  0.62 0.01 0  0.63 0.01 0  0.64 0.01 0  0.65 0.01 0  0.66 0.01 0  0.67 0.01 0  0.68 0.01 0  0.6899999999999999 0.01 0  0.7 0.01 0  0.71 0.01 0  0.72 0.01 0  0.73 0.01 0  0.74 0.01 0  0.75 0.01 0  0.76 0.01 0  0.77 0.01 0  0.78 0.01 0  0.79 0.01 0  0.8 0.01 0  0.8100000000000001 0.01 0  0.82 0.01 0  0.83 0.01 0  0.84 0.01 0  0.85 0.01 0  0.86 0.01 0  0.87 0.01 0  0.88 0.01 0  0.89 0.01 0  0.9 0.01 0  0.91 0.01 0  0.92 0.01 0  0.93 0.01 0  0.9399999999999999 0.01 0  0.95 0.01 0  0.96 0.01 0  0.97 0.01 0  0.98 0.01 0  0.99 0.01 0  1 0.01 0  0 0.02 0  0.01 0.02 0  0.02 0.02 0  0.03 0.02 0  0.04 0.02 0  0.05 0.02 0  0.06 0.02 0  0.07000000000000001 0.02 0  0.08 0.02 0  0.09 0.02 0  0.1 0.02 0  0.11 0.02 0  0.12 0.02 0  0.13 0.02 0  0.14 0.02 0  0.15 0.02 0  0.16 0.02 0  0.17 0.02 0  0.18 0.02 0  0.19 0.02 0  0.2 0.02 0  0.21 0.02 0  0.22 0.02 0  0.23 0.02 0  0.24 0.02 0  0.25 0.02 0  0.26 0.02 0  0.27 0.02 0  0.28 0.02 0  0.29 0.02 0  0.3 0.02 0  0.31 0.02 0  0.32 0.02 0  0.33 0.02 0  0.34 0.02 0  0.35 0.02 0  0.36 0.02 0  0.37 0.02 0  0.38 0.02 0  0.39 0.02 0  0.4 0.02 0  0.41 0.02 0  0.42 0.02 0  0.43 0.02 0  0.44 0.02 0  0.45 0.02 0  0.46 0.02 0  0.47 0.02 0  0.48 0.02 0  0.49 0.02 0  0.5 0.02 0  0.51 0.02 0  0.52 0.02 0  0.53 0.02 0  0.54 0.02 0  0.55 0.02 0  0.5600000000000001 0.02 0  0.57 0.02 0  0.58 0.02 0  0.59 0.02 0  0.6 0.02 0  0.61 0.02 0  0.62 0.02 0  0.63 0.02 0  0.64 0.02 0  0.65 0.02 0  0.66 0.02 0  0.67 0.02 0  0.68 0.02 0  0.6899999999999999 0.02 0  0.7 0.02 0  0.71 0.02 0  0.72 0.02 0  0.73 0.02 0  0.74 0.02 0  0.75 0.02 0  0.76 0.02 0  0.77 0.02 0  0.78 0.02 0  0.79 0.02 0  0.8 0.02 0  0.8100000000000001 0.02 0  0.82 0.02 0  0.83 0.02 0  0.84 0.02 0  0.85 0.02 0  0.86 0.02 0  0.87 0.02 0  0.88 0.02 0  0.89 0.02 0  0.9 0.02 0  0.91 0.02 0  0.92 0.02 0  0.93 0.02 0  0.9399999999999999 0.02 0  0.95 0.02 0  0.96 0.02 0  0.97 0.02 0  0.98 0.02 0  0.99 0.02 0  1 0.02 0  0 0.03 0  0.01 0.03 0  0.02 0.03 0  0.03 0.03 0  0.04 0.03 0  0.05 0.03 0  0.06 0.03 0  0.07000000000000001 0.03 0  0.08 0.03 0  0.09 0.03 0  0.1 0.03 0  0.11 0.03 0  0.12 0.03 0  0.13 0.03 0  0.14 0.03 0  0.15 0.03 0  0.16 0.03 0  0.17 0.03 0  0.18 0.03 0  0.19 0.03 0  0.2 0.03 0  0.21 0.03 0  0.22 0.03 0  0.23 0.03 0  0.24 0.03 0  0.25 0.03 0  0.26 0.03 0  0.27 0.03 0  0.28 0.03 0  0.29 0.03 0  0.3 0.03 0  0.31 0.03 0  0.32 0.03 0  0.33 0.03 0  0.34 0.03 0  0.35 0.03 0  0.36 0.03 0  0.37 0.03 0  0.38 0.03 0  0.39 0.03 0  0.4 0.03 0  0.41 0.03 0  0.42 0.03 0  0.43 0.03 0  0.44 0.03 0  0.45 0.03 0  0.46 0.03 0  0.47 0.03 0  0.48 0.03 0  0.49 0.03 0  0.5 0.03 0  0.51 0.03 0  0.52 0.03 0  0.53 0.03 0  0.54 0.03 0  0.55 0.03 0  0.5600000000000001 0.03 0  0.57 0.03 0  0.58 0.03 0  0.59 0.03 0  0.6 0.03 0  0.61 0.03 0  0.62 0.03 0  0.63 0.03 0  0.64 0.03 0  0.65 0.03 0  0.66 0.03 0  0.67 0.03 0  0.68 0.03 0  0.6899999999999999 0.03 0  0.7 0.03 0  0.71 0.03 0  0.72 0.03 0  0.73 0.03 0  0.74 0.03 0  0.75 0.03 0  0.76 0.03 0  0.77 0.03 0  0.78 0.03 0  0.79 0.03 0  0.8 0.03 0  0.8100000000000001 0.03 0  0.82 0.03 0  0.83 0.03 0  0.84 0.03 0  0.85 0.03 0  0.86 0.03 0  0.87 0.03 0  0.88 0.03 0  0.89 0.03 0  0.9 0.03 0  0.91 0.03 0  0.92 0.03 0  0.93 0.03 0  0.9399999999999999 0.03 0  0.95 0.03 0  0.96 0.03 0  0.97 0.03 0  0.98 0.03 0  0.99 0.03 0  1 0.03 0  0 0.04 0  0.01 0.04 0  0.02 0.04 0  0.03 0.04 0  0.04 0.04 0  0.05 0.04 0  0.06 0.04 0  0.07000000000000001 0.04 0  0.08 0.04 0  0.09 0.04 0  0.1 0.04 0  0.11 0.04 0  0.12 0.04 0  0.13 0.04 0  0.14 0.04 0  0.15 0.04 0  0.16 0.04 0  0.17 0.04 0  0.18 0.04 0  0.19 0.04 0  0.2 0.04 0  0.21 0.04 0  0.22 0.04 0  0.23 0.04 0  0.24 0.04 0  0.25 0.04 0  0.26 0.04 0  0.27 0.04 0  0.28 0.04 0  0.29 0.04 0  0.3 0.04 0  0.31 0.04 0  0.32 0.04 0  0.33 0.04 0  0.34 0.04 0  0.35 0.04 0  0.36 0.04 0  0.37 0.04 0  0.38 0.04 0  0.39 0.04 0  0.4 0.04 0  0.41 0.04 0  0.42 0.04 0  0.43 0.04 0  0.44 0.04 0  0.45 0.04 0  0.46 0.04 0  0.47 0.04 0  0.48 0.04 0  0.49 0.04 0  0.5 0.04 0  0.51 0.04 0  0.52 0.04 0  0.53 0.04 0  0.54 0.04 0  0.55 0.04 0  0.5600000000000001 0.04 0  0.57 0.04 0  0.58 0.04 0  0.59 0.04 0  0.6 0.04 0  0.61 0.04 0  0.62 0.04 0  0.63 0.04 0  0.64 0.04 0  0.65 0.04 0  0.66 0.04 0  0.67 0.04 0  0.68 0.04 0  0.6899999999999999 0.04 0  0.7 0.04 0  0.71 0.04 0  0.72 0.04 0  0.73 0.04 0  0.74 0.04 0  0.75 0.04 0  0.76 0.04 0  0.77 0.04 0  0.78 0.04 0  0.79 0.04 0  0.8 0.04 0  0.8100000000000001 0.04 0  0.82 0.04 0  0.83 0.04 0  0.84 0.04 0  0.85 0.04 0  0.86 0.04 0  0.87 0.04 0  0.88 0.04 0  0.89 0.04 0  0.9 0.04 0  0.91 0.04 0  0.92 0.04 0  0.93 0.04 0  0.9399999999999999 0.04 0  0.95 0.04 0  0.96 0.04 0  0.97 0.04 0  0.98 0.04 0  0.99 0.04 0  1 0.04 0  0 0.05 0  0.01 0.05 0  0.02 0.05 0  0.03 0.05 0  0.04 0.05 0  0.05 0.05 0  0.06 0.05 0  0.07000000000000001 0.05 0  0.08 0.05 0  0.09 0.05 0  0.1 0.05 0  0.11 0.05 0  0.12 0.05 0  0.13 0.05 0  0.14 0.05 0  0.15 0.05 0  0.16 0.05 0  0.17 0.05 0  0.18 0.05 0  0.19 0.05 0  0.2 0.05 0  0.21 0.05 0  0.22 0.05 0  0.23 0.05 0  0.24 0.05 0  0.25 0.05 0  0.26 0.05 0  0.27 0.05 0  0.28 0.05 0  0.29 0.05 0  0.3 0.05 0  0.31 0.05 0  0.32 0.05 0  0.33 0.05 0  0.34 0.05 0  0.35 0.05 0  0.36 0.05 0  0.37 0.05 0  0.38 0.05 0  0.39 0.05 0  0.4 0.05 0  0.41 0.05 0  0.42 0.05 0  0.43 0.05 0  0.44 0.05 0  0.45 0.05 0  0.46 0.05 0  0.47 0.05 0  0.48 0.05 0  0.49 0.05 0  0.5 0.05 0  0.51 0.05 0  0.52 0.05 0  0.53 0.05 0  0.54 0.05 0  0.55 0.05 0  0.5600000000000001 0.05 0  0.57 0.05 0  0.58 0.05 0  0.59 0.05 0  0.6 0.05 0  0.61 0.05 0  0.62 0.05 0  0.63 0.05 0  0.64 0.05 0  0.65 0.05 0  0.66 0.05 0  0.67 0.05 0  0.68 0.05 0  0.6899999999999999 0.05 0  0.7 0.05 0  0.71 0.05 0  0.72 0.05 0  0.73 0.05 0  0.74 0.05 0  0.75 0.05 0  0.76 0.05 0  0.77 0.05 0  0.78 0.05 0  0.79 0.05 0  0.8 0.05 0  0.8100000000000001 0.05 0  0.82 0.05 0  0.83 0.05 0  0.84 0.05 0  0.85 0.05 0  0.86 0.05 0  0.87 0.05 0  0.88 0.05 0  0.89 0.05 0  0.9 0.05 0  0.91 0.05 0  0.92 0.05 0  0.93 0.05 0  0.9399999999999999 0.05 0  0.95 0.05 0  0.96 0.05 0  0.97 0.05 0  0.98 0.05 0  0.99 0.05 0  1 0.05 0  0 0.06 0  0.01 0.06 0  0.02 0.06 0  0.03 0.06 0  0.04 0.06 0  0.05 0.06 0  0.06 0.06 0  0.07000000000000001 0.06 0  0.08 0.06 0  0.09 0.06 0  0.1 0.06 0  0.11 0.06 0  0.12 0.06 0  0.13 0.06 0  0.14 0.06 0  0.15 0.06 0  0.16 0.06 0  0.17 0.06 0  0.18 0.06 0  0.19 0.06 0  0.2 0.06 0  0.21 0.06 0  0.22 0.06 0  0.23 0.06 0  0.24 0.06 0  0.25 0.06 0  0.26 0.06 0  0.27 0.06 0  0.28 0.06 0  0.29 0.06 0  0.3 0.06 0  0.31 0.06 0  0.32 0.06 0  0.33 0.06 0  0.34 0.06 0  0.35 0.06 0  0.36 0.06 0  0.37 0.06 0  0.38 0.06 0  0.39 0.06 0  0.4 0.06 0  0.41 0.06 0  0.42 0.06 0  0.43 0.06 0  0.44 0.06 0  0.45 0.06 0  0.46 0.06 0  0.47 0.06 0  0.48 0.06 0  0.49 0.06 0  0.5 0.06 0  0.51 0.06 0  0.52 0.06 0  0.53 0.06 0  0.54 0.06 0  0.55 0.06 0  0.5600000000000001 0.06 0  0.57 0.06 0  0.58 0.06 0  0.59 0.06 0  0.6 0.06 0  0.61 0.06 0  0.62 0.06 0  0.63 0.06 0  0.64 0.06 0  0.65 0.06 0  0.66 0.06 0  0.67 0.06 0  0.68 0.06 0  0.6899999999999999 0.06 0  0.7 0.06 0  0.71 0.06 0  0.72 0.06 0  0.73 0.06 0  0.74 0.06 0  0.75 0.06 0  0.76 0.06 0  0.77 0.06 0  0.78 0.06 0  0.79 0.06 0  0.8 0.06 0  0.8100000000000001 0.06 0  0.82 0.06 0  0.83 0.06 0  0.84 0.06 0  0.85 0.06 0  0.86 0.06 0  0.87 0.06 0  0.88 0.06 0  0.89 0.06 0  0.9 0.06 0  0.91 0.06 0  0.92 0.06 0  0.93 0.06 0  0.9399999999999999 0.06 0  0.95 0.06 0  0.96 0.06 0  0.97 0.06 0  0.98 0.06 0  0.99 0.06 0  1 0.06 0  0 0.07000000000000001 0  0.01 0.07000000000000001 0  0.02 0.07000000000000001 0  0.03 0.07000000000000001 0  0.04 0.07000000000000001 0  0.05 0.07000000000000001 0  0.06 0.07000000000000001 0  0.07000000000000001 0.07000000000000001 0  0.08 0.07000000000000001 0  0.09 0.07000000000000001 0  0.1 0.07000000000000001 0  0.11 0.07000000000000001 0  0.12 0.07000000000000001 0  0.13 0.07000000000000001 0  0.14 0.07000000000000001 0  0.15 0.07000000000000001 0  0.16 0.07000000000000001 0  0.17 0.0700
[...]
<PointData  Scalars="f_17"> 
<DataArray  type="Float64"  Name="f_17"  format="ascii">0.0000000000000000e+00  5.0000000000000000e+01  5.0000000000000000e+01  5.0000000000000000e+01  5.0000000000000000e+01  5.0000000000000000e+01  5.0000000000000000e+01  5.0000000000000000e+01  5.0000000000000000e+01  5.0000000000000000e+01  5.0000000000000000e+01  5.0000000000000000e+01  5.0000000000000000e+01  5.0000000000000000e+01  5.0000000000000000e+01  5.0000000000000000e+01  5.0000000000000000e+01  5.0000000000000000e+01  5.0000000000000000e+01  5.0000000000000000e+01  5.0000000000000000e+01  5.0000000000000000e+01  5.0000000000000000e+01  5.0000000000000000e+01  5.0000000000000000e+01  5.0000000000000000e+01  5.0000000000000000e+01  5.0000000000000000e+01  5.0000000000000000e+01  5.0000000000000000e+01  5.0000000000000000e+01  5.0000000000000000e+01  5.0000000000000000e+01  5.0000000000000000e+01  5.0000000000000000e+01  5.0000000000000000e+01  5.0000000000000000e+01  5.0000000000000000e+01  5.0000000000000000e+01  5.0000000000000000e+01  5.0000000000000000e+01  5.0000000000000000e+01  5.0000000000000000e+01  5.0000000000000000e+01  5.0000000000000000e+01  5.0000000000000000e+01  5.0000000000000000e+01  5.0000000000000000e+01  5.0000000000000000e+01  5.0000000000000000e+01  5.0000000000000000e+01  5.0000000000000000e+01  5.0000000000000000e+01  5.0000000000000000e+01  5.0000000000000000e+01  5.0000000000000000e+01  5.0000000000000000e+01  5.0000000000000000e+01  5.0000000000000000e+01  5.0000000000000000e+01  5.0000000000000000e+01  5.0000000000000000e+01  5.0000000000000000e+01  5.0000000000000000e+01  5.0000000000000000e+01  5.0000000000000000e+01  5.0000000000000000e+01  5.0000000000000000e+01  5.0000000000000000e+01  5.0000000000000000e+01  5.0000000000000000e+01  5.0000000000000000e+01  5.0000000000000000e+01  5.0000000000000000e+01  5.0000000000000000e+01  5.0000000000000000e+01  5.0000000000000000e+01  5.0000000000000000e+01  5.0000000000000000e+01  5.0000000000000000e+01  5.0000000000000000e+01  5.0000000000000000e+01  5.0000000000000000e+01  5.0000000000000000e+01  5.0000000000000000e+01  5.0000000000000000e+01  5.0000000000000000e+01  5.0000000000000000e+01  5.0000000000000000e+01  5.0000000000000000e+01  5.0000000000000000e+01  5.0000000000000000e+01  5.0000000000000000e+01  5.0000000000000000e+01  5.0000000000000000e+01  5.0000000000000000e+01  5.0000000000000000e+01  5.0000000000000000e+01  5.0000000000000000e+01  5.0000000000000000e+01  0.0000000000000000e+00  0.0000000000000000e+00  2.4966447729931705e+01  3.5186568296265904e+01  3.9659842157248512e+01  4.2068739686353695e+01  4.3549843092793637e+01  4.4543169159089878e+01  4.5250436961629958e+01  4.5776228277236832e+01  4.6179935526438861e+01  4.6497714836261544e+01  4.6752810704746707e+01  4.6960837319359108e+01  4.7132668377565970e+01  4.7276107960976177e+01  4.7396902014795515e+01  4.7499374892504171e+01  4.7586843488415987e+01  4.7661894541256032e+01  4.7726575052914491e+01  4.7782525983262758e+01  4.7831077991701974e+01  4.7873321223450823e+01  4.7910156994513308e+01  4.7942336627757356e+01  4.7970491021260067e+01  4.7995153433760457e+01  4.8016777239106318e+01  4.8035749902989409e+01  4.8052404090653049e+01  4.8067026572565780e+01  4.8079865423233791e+01  4.8091135884646008e+01  4.8101025175765706e+01  4.8109696463173151e+01  4.8117292158644005e+01  4.8123936672424698e+01  4.8129738722913565e+01  4.8134793282031573e+01  4.8139183219061479e+01  4.8142980692925576e+01  4.8146248332854803e+01  4.8149040239508544e+01  4.8151402832335435e+01  4.8153375563949659e+01  4.8154991518245197e+01  4.8156277905666791e+01  4.8157256466331731e+01  4.8157943789418184e+01  4.8158351555297983e+01  4.8158486705211104e+01  4.8158351541783738e+01  4.8157943762322411e+01  4.8157256425520394e+01  4.8156277850940420e+01  4.8154991449340493e+01  4.8153375480541811e+01  4.8151402734041213e+01  4.8149040125889712e+01  4.8146248203422019e+01  4.8142980547143175e+01  4.8139183056352586e+01  4.8134793101783885e+01  4.8129738524485241e+01  4.8123936455151174e+01  4.8117291921845144e+01  4.8109696206160692e+01  4.8101024897851076e+01  4.8091135585148223e+01  4.8079865101488217e+01  4.8067026227932509e+01  4.8052403722525391e+01  4.8035749510802368e+01  4.8016776822345513e+01  4.7995152991970066e+01  4.7970490554050954e+01  4.7942336134814610e+01  4.7910156475603209e+01  4.7873320678427433e+01  4.7831077420512585e+01  4.7782525385952404e+01  4.7726574429629942e+01  4.7661893892248138e+01  4.7586842814040615e+01  4.7499374193222174e+01  4.7396901291170607e+01  4.7276107213670976e+01  4.7132667607336288e+01  4.6960836527045338e+01  4.6752809891262601e+01  4.6497714002579080e+01  4.6179934673567473e+01  4.5776227406194927e+01  4.5250436073401808e+01  4.4543168254553819e+01  4.3549842172581926e+01  4.2068738750519806e+01  3.9659841204270499e+01  3.5186567319214717e+01  2.4966446697568742e+01  0.0000000000000000e+00  0.0000000000000000e+00  1.4679364748905110e+01  2.4866075604393885e+01  3.1084252666540284e+01  3.4975091994154951e+01  3.7554847205122599e+01  3.9359001542419620e+01  4.0676497184306861e+01  4.1672067782987732e+01  4.2445024486033482e+01  4.3058284309380994e+01  4.3553441457151756e+01  4.3959009442604625e+01  4.4295149718881468e+01  4.4576502682065083e+01  4.4813947315347811e+01  4.5015731526531013e+01  4.5188219601593168e+01  4.5336399312242470e+01  4.5464233898458069e+01  4.5574911411245481e+01  4.5671024612126253e+01  4.5754702935938795e+01  4.5827710755887239e+01  4.5891521565670836e+01  4.5947374688683603e+01  4.5996319133670433e+01  4.6039247873997127e+01  4.6076924907825855e+01  4.6110006816548577e+01  4.6139060087418812e+01  4.6164575143772090e+01  4.6186977792977586e+01  4.6206638631703989e+01  4.6223880822053808e+01  4.6238986558086111e+01  4.6252202471433790e+01  4.6263744170933293e+01  4.6273800069989917e+01  4.6282534623605173e+01  4.6290091072257269e+01  4.6296593770450819e+01  4.6302150162451902e+01  4.6306852455556459e+01  4.6310779031489616e+01  4.6313995628641614e+01  4.6316556321408129e+01  4.6318504317581137e+01  4.6319872590285705e+01  4.6320684357164261e+01  4.6320953416219446e+01  4.6320684344794280e+01  4.6319872565483010e+01  4.6318504280220843e+01  4.6316556271304478e+01  4.6313995565549533e+01  4.6310778955106649e+01  4.6306852365525735e+01  4.6302150058365463e+01  4.6296593651853179e+01  4.6290090938649755e+01  4.6282534474450891e+01  4.6273799904718977e+01  4.6263743988948242e+01  4.6252202272116293e+01  4.6238986340802953e+01  4.6223880586164228e+01  4.6206638376566637e+01  4.6186977517957935e+01  4.6164574848250055e+01  4.6139059770796656e+01  4.6110006478258320e+01  4.6076924547336958e+01  4.6039247490823975e+01  4.5996318727379588e+01  4.5947374258900361e+01  4.5891521112085506e+01  4.5827710278260774e+01  4.5754702434107479e+01  4.5671024086005616e+01  4.5574910860832851e+01  4.5464233323834243e+01  4.5336398713571782e+01  4.5188218979121686e+01  4.5015730880583234e+01  4.4813946646321384e+01  4.4576501990422571e+01  4.4295149005139542e+01  4.3959008707319896e+01  4.3553440700902392e+01  4.3058283532742237e+01  4.2445023689545124e+01  4.1672066967109529e+01  4.0676496349353776e+01  3.9359000688460007e+01  3.7554846331804924e+01  3.4975091100389434e+01  3.1084251749922245e+01  2.4866074660683942e+01  1.4679363777930995e+01  0.0000000000000000e+00  0.0000000000000000e+00  1.0139414006866044e+01  1.8514687096029292e+01  2.4699738704940501e+01  2.9117187779468882e+01  3.2299120555466793e+01  3.4644108739183267e+01  3.6416289060780180e+01  3.7787040660109355e+01  3.8868928166898847e+01  3.9737623552408103e+01  4.0445328895689300e+01  4.1028974863407548e+01  4.1515306895590861e+01  4.1924110637953603e+01  4.2270306200718778e+01  4.2565339882259686e+01  4.2818129588525927e+01  4.3035720346622078e+01  4.3223747472115967e+01  4.3386769560353166e+01  4.3528511737182356e+01  4.3652045978953765e+01  4.3759926600122114e+01  4.3854293332332439e+01  4.3936950657388692e+01  4.4009429521867496e+01  4.4073035826793586e+01  4.4128888881919188e+01  4.4177952167223808e+01  4.4221058140922459e+01  4.4258928398398403e+01  4.4292190169563845e+01  4.4321389908798366e+01  4.4347004558116936e+01  4.4369450934036500e+01  4.4389093590077557e+01  4.4406251431651611e+01  4.4421203302259947e+01  4.4434192715122201e+01  4.4445431869383434e+01  4.4455105062555141e+01  4.4463371589080268e+01  4.4470368197552631e+01  4.4476211165165765e+01  4.4480998036656963e+01  4.4484809065753581e+01  4.4487708389466626e+01  4.4489744959149192e+01  4.4490953246754906e+01  4.4491353739962442e+01  4.4490953235579624e+01  4.4489744936739612e+01  4.4487708355705358e+01  4.4484809020465839e+01  4.4480997979612013e+01  4.4476211096079062e+01  4.4470368116088316e+01  4.4463371494854286e+01  4.4455104955138708e+01  4.4445431748307108e+01  4.4434192579880246e+01  4.4421203152315407e+01  4.4406251266441501e+01  4.4389093409018649e+01  4.4369450736531562e+01  4.4347004343560855e+01  4.4321389676584886e+01  4.4292189919092472e+01  4.4258928129081148e+01  4.4221057852191194e+01  4.4177951858536908e+01  4.4128888552768252e+01  4.4073035476710295e+01  4.4009429150429533e+01  4.3936950264225558e+01  4.3854292917130515e+01  4.3759926162628950e+01  4.3652045518981318e+01  4.3528511254609576e+01  4.3386769055126571e+01  4.3223746944249754e+01  4.3035719796195700e+01  4.2818129015680171e+01  4.2565339287190561e+01  4.2270305583669064e+01  4.1924109999200944e+01  4.1515306235433336e+01  4.1028974182144218e+01  4.0445328193596183e+01  3.9737622829707043e+01  3.8868927423717516e+01  3.7787039896428411e+01  3.6416288276361755e+01  3.4644107933472114e+01  3.2299119727453984e+01  2.9117186927526241e+01  2.4699737826736886e+01  1.8514686189034876e+01  1.0139413069939675e+01  0.0000000000000000e+00  0.0000000000000000e+00  7.6642655487569602e+00  1.4491487298329352e+01  2.0084101444220519e+01  2.4468846888377914e+01  2.7859527577375363e+01  3.0489451844067172e+01  3.2550990729305632e+01  3.4188292345559731e+01  3.5505977825371296e+01  3.6579602848484335e+01  3.7464118424392389e+01  3.8199984483799192e+01  3.8817420103945693e+01  3.9339329451883252e+01  3.9783322380455914e+01  4.0163122746514773e+01  4.0489561860885864e+01  4.0771288553985706e+01  4.1015283521800754e+01  4.1227236819388132e+01  4.1411828435859732e+01  4.1572939357641545e+01  4.1713812159634209e+01  4.1837174513693618e+01  4.1945335143737509e+01  4.2040259088372885e+01  4.2123627265700208e+01  4.2196884014843917e+01  4.2261275344682147e+01  4.2317879937968343e+01  4.2367634460979296e+01  4.2411354361758427e+01  4.2449751067021495e+01  4.2483446282987060e+01  4.2512983950473426e+01  4.2538840286497525e+01  4.2561432253889265e+01  4.2581124730243125e+01  4.2598236592841928e+01  4.2613045893290419e+01  4.2625794261718248e+01  4.2636690653473231e+01  4.2645914529658207e+01  4.2653618545461228e+01  4.2659930806075003e+01  4.2664956738379821e+01  4.2668780616912350e+01  4.2671466774526650e+01  4.2673060521211205e+01  4.2673588788470532e+01  4.2673060511272730e+01  4.2671466754593546e+01  4.2668780586872749e+01  4.2664956698067115e+01  4.2659930755269244e+01  4.2653618483891101e+01  4.2645914457003471e+01  4.2636690569367445e+01  4.2625794165752097e+01  4.2613045785015665e+01  4.2598236471775358e+01  4.2581124595871252e+01  4.2561432105673290e+01  4.2538840123878934e+01  4.2512983772879451e+01  4.2483446089836754e+01  4.2449750857731608e+01  4.2411354135750187e+01  4.2367634217684667e+01  4.2317879676836441e+01  4.2261275065185487e+01  4.2196883716484791e+01  4.2123626948016280e+01  4.2040258750942655e+01  4.1945334786185207e+01  4.1837174135693488e+01  4.1713811760913444e+01  4.1572938937982862e+01  4.1411827995102051e+01  4.1227236357426420e+01  4.1015283038584059e+01  4.0771288049513132e+01  4.0489561335200769e+01  4.0163122199696240e+01  3.9783321812607710e+01  3.9339328863119334e+01  3.8817419494372153e+01  3.8199983853491574e+01  3.7464117773367569e+01  3.6579602176665340e+01  3.5505977132543691e+01  3.4188291631316872e+01  3.2550989992980057e+01  3.0489451084646934e+01  2.7859526793409678e+01  2.4468846077898043e+01  2.0084100604747796e+01  1.4491486427049541e+01  7.6642646425851852e+00  0.0000000000000000e+00  0.0000000000000000e+00  6.1174748594014625e+00  1.1780497692950620e+01  1.6705666558775199e+01  2.0816813209062055e+01  2.4175344251809349e+01  2.6898148868114841e+01  2.9107213795860108e+01  3.0908793553095261e+01  3.2388652615579524e+01  3.3613770368157638e+01  3.4635829520869081e+01  3.5494661303218841e+01  3.6221101223507034e+01  3.6839198571689188e+01  3.7367876072648471e+01  3.7822162466002879e+01  3.8214106150149767e+01  3.8553454579877226e+01  3.8848162519470051e+01  3.9104775137596789e+01  3.9328719169398013e+01  3.9524526119729025e+01  3.9696004854853037e+01  3.9846376200381137e+01  3.9978378783656602e+01  4.0094352933989981e+01  4.0196307704430076e+01  4.0285974807671572e+01  4.0364852328627492e+01  4.0434240390534008e+01  4.0495270442153647e+01  4.0548929452493823e+01  4.0596080012113518e+01  4.0637477121899636e+01  4.0673782283357944e+01  4.0705575376025649e+01  4.0733364708085439e+01  4.0757595548640239e+01  4.0778657389193683e+01  4.0796890133780202e+01  4.0812589378967537e+01  4.0826010914396768e+01  4.0837374549923304e+01  4.0846867355481784e+01  4.0854646383504068e+01  4.0860840930279252e+01  4.0865554381447240e+01  4.0868865677355231e+01  4.0870830425892478e+01  4.0871481683316745e+01  4.0870830417225008e+01  4.0868865659965969e+01  4.0865554355228049e+01  4.0860840895068918e+01  4.0854646339089818e+01  4.0846867301601094e+01  4.0837374486265965e+01  4.0826010840607779e+01  4.0812589294650046e+01  4.0796890038499185e+01  4.0778657282479863e+01  4.0757595429994232e+01  4.0733364576982915e+01  4.0705575231922047e+01  4.0673782125694025e+01  4.0637476950107043e+01  4.0596079825620613e+01  4.0548929250731632e+01  4.0495270224561985e+01  4.0434240156567455e+01  4.0364852077761412e+01  4.0285974539407519e+01  4.0196307418301366e+01  4.0094352629566366e+01  3.9978378460548633e+01  3.9846375858243491e+01  3.9696004493387072e+01  3.9524525738684211e+01  3.9328718768571846e+01  3.9104774716833525e+01  3.8848162078657232e+01  3.8553454118940635e+01  3.8214105669045836e+01  3.7822161964708599e+01  3.7367875551148295e+01  3.6839198029958716e+01  3.6221100661492343e+01  3.5494660720811531e+01  3.4635828917876047e+01  3.3613769744263919e+01  3.2388651970304011e+01  3.0908792885737437e+01  2.9107213105437491e+01  2.6898148153292674e+01  2.4175343510828352e+01  2.0816812439678561e+01  1.6705665758228399e+01  1.1780496857927972e+01  6.1174739858478278e+00  0.0000000000000000e+00  0.0000000000000000e+00  5.0591592430793266e+00  9.8465029227399494e+00  1.4166263450464189e+01  1.7928311877741411e+01  2.1130346088413805e+01  2.3821680198152219e+01  2.6072153306216713e+01  2.7953306060277736e+01  2.9529629792900231e+01  3.0855776623728058e+01  3.1976643769321207e+01  3.2928575729587322e+01  3.3740833074466991e+01  3.4436971099995297e+01  3.5036010251660265e+01  3.5553383880741443e+01  3.6001687894664599e+01  3.6391267192290556e+01  3.6730672577799261e+01  3.7027016813905270e+01  3.7286252827064942e+01  3.7513392011191577e+01  3.7712676418930158e+01  3.7887715362316222e+01  3.8041594434214815e+01  3.8176963055131850e+01  3.8296105209149637e+01  3.8400996945403385e+01  3.8493353399992117e+01  3.8574667470818966e+01  3.8646241804530803e+01  3.8709215393174020e+01  3.8764585800665330e+01  3.8813227825080588e+01  3.8855909236728323e+01  3.8893304102533477e+01  3.8926004105808680e+01  3.8954528190558236e+01  3.8979330796147075e+01  3.9000808897748207e+01  3.9019308027608531e+01  3.9035127419659879e+01  3.9048524393661033e+01  3.9059718073567979e+01  3.9068892517171129e+01  3.9076199319400303e+01  3.9081759739431440e+01  3.9085666391324317e+01  3.9087984528951687e+01  3.9088752948104897e+01  3.9087984521581895e+01  3.9085666376531393e+01  3.9081759717109108e+01  3.9076199289390210e+01  3.9068892479264093e+01  3.9059718027505767e+01  3.9048524339138325e+01  3.9035127356326946e+01  3.9019307955074176e+01  3.9000808815583000e+01  3.8979330703887129e+01  3.8954528087709591e+01  3.8926003991851580e+01  3.8893303976927292e+01  3.8855909098916683e+01  3.8813227674496872e+01  3.8764585636738069e+01  3.8709215215332875e+01  3.8646241612212037e+01  3.8574667263471540e+01  3.8493353177083236e+01  3.8400996706423697e+01  3.8296104953618375e+01  3.8176962782601358e+01  3.8041594144274292e+01  3.7887715054594771e+01  3.7712676093098821e+01  3.7513391666964083e+01  3.7286252464197197e+01  3.7027016432193065e+01  3.6730672177074226e+01  3.6391266772413992e+01  3.6001687455518990e+01  3.5553383422218950e+01  3.5036009773648651e+01  3.4436970602359885e+01  3.3740832557029044e+01  3.2928575192097732e+01  3.1976643211429227e+01  3.0855776044944111e+01  2.9529629192552555e+01  2.7953305437461989e+01  2.6072152659739331e+01  2.3821679526468614e+01  2.1130345389565168e+01  1.7928311149293542e+01  1.4166262689444771e+01  9.8465021255487102e+00  5.0591584053184491e+00  0.0000000000000000e+00  0.0000000000000000e+00  4.2877292713579287e+00  8.4008198258568054e+00  1.2202143216592304e+01  1.5611487660080650e+01  1.8603189033972164e+01  2.1190974935158167e+01  2.3410773362172566e+01  2.5307407292314675e+01  2.6926369437983887e+01  2.8309620875188820e+01  2.9493939681795439e+01  3.0510661032267826e+01  3.1386074608773448e+01  3.2142069523563286e+01  3.2796820101317564e+01  3.3365419968735068e+01  3.3860431142237076e+01  3.4292343281132183e+01  3.4669950548673498e+01  3.5000657727446921e+01  3.5290727678046011e+01  3.5545481101405265e+01  3.5769457929653200e+01  3.5966548012822884e+01  3.6140097285691006e+01  3.6292994349084537e+01  3.6427741380267413e+01  3.6546512470419934e+01  3.6651201840196052e+01  3.6743463874593139e+01  3.6824746517797863e+01  3.6896319254034516e+01  3.6959296653064357e+01  3.7014658264102252e+01  3.7063265487983585e+01  3.7105875935438867e+01  3.7143155682344705e+01  3.7175689755402921e+01  3.7203991119658816e+01  3.7228508389336419e+01  3.7249632443097944e+01  3.7267702092034355e+01  3.7283008921902024e+01  3.7295801409099859e+01  3.7306288391658377e+01  3.7314641961302911e+01  3.7320999829835650e+01  3.7325467212139451e+01  3.7328118258632102e+01  3.7328997061635306e+01  3.7328118252579834e+01  3.7325467199981709e+01  3.7320999811466336e+01  3.7314641936563945e+01  3.7306288360340787e+01  3.7295801370945497e+01  3.7283008876605351e+01  3.7267702039245279e+01  3.7249632382424238e+01  3.7228508320347032e+01  3.7203991041887512e+01  3.7175689668352305e+01  3.7143155585490604e+01  3.7105875828234915e+01  3.7063265369866322e+01  3.7014658134496372e+01  3.6959296511388096e+01  3.6896319099705352e+01  3.6824746350238037e+01  3.6743463693235604e+01  3.6651201644489809e+01  3.6546512259835232e+01  3.6427741154300719e+01  3.6292994107262977e+01  3.6140097027575905e+01  3.5966547738012665e+01  3.5769457637785145e+01  3.5545480792156134e+01  3.5290727351131075e+01  3.5000657382617320e+01  3.4669950185711883e+01  3.4292342899845764e+01  3.3860430742448699e+01  3.3365419550271234e+01  3.2796819663993354e+01  3.2142069067164044e+01  3.1386074133032370e+01  3.0510660536839517e+01  2.9493939166224798e+01  2.8309620338874772e+01  2.6926368880137815e+01  2.5307406711913480e+01  2.3410772757907022e+01  2.1190974305377082e+01  1.8603188376624090e+01  1.5611486972652811e+01  1.2202142496042544e+01  8.4008190685275306e+00  4.2877284728593628e+00  0.0000000000000000e+00  0.0000000000000000e+00  3.6987275947244154e+00  7.2789633362980082e+00  1.0642298927637551e+01  1.3722687480144803e+01  1.6488235377324596e+01  1.8935229701827261e+01  2.1079107170778290e+01  2.2945969174754605e+01  2.4566246393854314e+01  2.5970664448037642e+01  2.7188021873265711e+01  2.8244180961256266e+01  2.9161782323525895e+01  2.9960347996945973e+01  3.0656566326853479e+01  3.1264640844724227e+01  3.1796641101894362e+01  3.2262826054580806e+01  3.2671928653191422e+01  3.3031399696081792e+01  3.3347613508430861e