<?xml version="1.0"?>
<VTKFile type="UnstructuredGrid"  version="0.1"  >
<UnstructuredGrid>
<Piece  NumberOfPoints="10201" NumberOfCells="20000">
<Points>
<DataArray  type="Float64"  NumberOfComponents="3"  format="ascii">0 0 0  0.01 0 0  0.02 0 0  0.03 0 0  0.04 0 0  0.05 0 0  0.06 0 0  0.07000000000000001 0 0  0.08 0 0  0.09 0 0  0.1 0 0  0.11 0 0  0.12 0 0  0.13 0 0  0.14 0 0  0.15 0 0  0.16 0 0  0.17 0 0  0.18 0 0  0.19 0 0  0.2 0 0  0.21 0 0  0.22 0 0  0.23 0 0  0.24 0 0  0.25 0 0  0.26 0 0  0.27 0 0  0.28 0 0  0.29 0 0  0.3 0 0  0.31 0 0  0.32 0 0  0.33 0 0  0.34 0 0  0.35 0 0  0.36 0 0  0.37 0 0  0.38 0 0  0.39 0 0  0.4 0 0  0.41 0 0  0.42 0 0  0.43 0 0  0.44 0 0  0.45 0 0  0.46 0 0  0.47 0 0  0.48 0 0  0.49 0 0  0.5 0 0  0.51 0 0  0.52 0 0  0.53 0 0  0.54 0 0  0.55 0 0  0.5600000000000001 0 0  0.57 0 0  0.58 0 0  0.59 0 0  0.6 0 0  0.61 0 0  0.62 0 0  0.63 0 0  0.64 0 0  0.65 0 0  0.66 0 0  0.67 0 0  0.68 0 0  0.6899999999999999 0 0  0.7 0 0  0.71 0 0  0.72 0 0  0.73 0 0  0.74 0 0  0.75 0 0  0.76 0 0  0.77 0 0  0.78 0 0  0.79 0 0  0.8 0 0  0.8100000000000001 0 0  0.82 0 0  0.83 0 0  0.84 0 0  0.85 0 0  0.86 0 0  0.87 0 0  0.88 0 0  0.89 0 0  0.9 0 0  0.91 0 0  0.92 0 0  0.93 0 0  0.9399999999999999 0 0  0.95 0 0  0.96 0 0  0.97 0 0  0.98 0 0  0.99 0 0  1 0 0  0 0.01 0  0.01 0.01 0  0.02 0.01 0  0.03 0.01 0  0.04 0.01 0  0.05 0.01 0  0.06 0.01 0  0.07000000000000001 0.01 0  0.08 0.01 0  0.09 0.01 0  0.1 0.01 0  0.11 0.01 0  0.12 0.01 0  0.13 0.01 0  0.14 0.01 0  0.15 0.01 0  0.16 0.01 0  0.17 0.01 0  0.18 0.01 0  0.19 0.01 0  0.2 0.01 0  0.21 0.01 0  0.22 0.01 0  0.23 0.01 0  0.24 0.01 0  0.25 0.01 0  0.26 0.01 0  0.27 0.01 0  0.28 0.01 0  0.29 0.01 0  0.3 0.01 0  0.31 0.01 0  0.32 0.01 0  0.33 0.01 0  0.34 0.01 0  0.35 0.01 0  0.36 0.01 0  0.37 0.01 0  0.38 0.01 0  0.39 0.01 0  0.4 0.01 0  0.41 0.01 0  0.42 0.01 0  0.43 0.01 0  0.44 0.01 0  0.45 0.01 0  0.46 0.01 0  0.47 0.01 0  0.48 0.01 0  0.49 0.01 0  0.5 0.01 0  0.51 0.01 0  0.52 0.01 0  0.53 0.01 0  0.54 0.01 0  0.55 0.01 0  0.5600000000000001 0.01 0  0.57 0.01 0  0.58 0.01 0  0.59 0.01 0  0.6 0.01 0  0.61 0.01 0  0.62 0.01 0  0.63 0.01 0  0.64 0.01 0  0.65 0.01 0  0.66 0.01 0  0.67 0.01 0  0.68 0.01 0  0.6899999999999999 0.01 0  0.7 0.01 0  0.71 0.01 0  0.72 0.01 0  0.73 0.01 0  0.74 0.01 0  0.75 0.01 0  0.76 0.01 0  0.77 0.01 0  0.78 0.01 0  0.79 0.01 0  0.8 0.01 0  0.8100000000000001 0.01 0  0.82 0.01 0  0.83 0.01 0  0.84 0.01 0  0.85 0.01 0  0.86 0.01 0  0.87 0.01 0  0.88 0.01 0  0.89 0.01 0  0.9 0.01 0  0.91 0.01 0  0.92 0.01 0  0.93 0.01 0  0.9399999999999999 0.01 0  0.95 0.01 0  0.96 0.01 0  0.97 0.01 0  0.98 0.01 0  0.99 0.01 0  1 0.01 0  0 0.02 0  0.01 0.02 0  0.02 0.02 0  0.03 0.02 0  0.04 0.02 0  0.05 0.02 0  0.06 0.02 0  0.07000000000000001 0.02 0  0.08 0.02 0  0.09 0.02 0  0.1 0.02 0  0.11 0.02 0  0.12 0.02 0  0.13 0.02 0  0.14 0.02 0  0.15 0.02 0  0.16 0.02 0  0.17 0.02 0  0.18 0.02 0  0.19 0.02 0  0.2 0.02 0  0.21 0.02 0  0.22 0.02 0  0.23 0.02 0  0.24 0.02 0  0.25 0.02 0  0.26 0.02 0  0.27 0.02 0  0.28 0.02 0  0.29 0.02 0  0.3 0.02 0  0.31 0.02 0  0.32 0.02 0  0.33 0.02 0  0.34 0.02 0  0.35 0.02 0  0.36 0.02 0  0.37 0.02 0  0.38 0.02 0  0.39 0.02 0  0.4 0.02 0  0.41 0.02 0  0.42 0.02 0  0.43 0.02 0  0.44 0.02 0  0.45 0.02 0  0.46 0.02 0  0.47 0.02 0  0.48 0.02 0  0.49 0.02 0  0.5 0.02 0  0.51 0.02 0  0.52 0.02 0  0.53 0.02 0  0.54 0.02 0  0.55 0.02 0  0.5600000000000001 0.02 0  0.57 0.02 0  0.58 0.02 0  0.59 0.02 0  0.6 0.02 0  0.61 0.02 0  0.62 0.02 0  0.63 0.02 0  0.64 0.02 0  0.65 0.02 0  0.66 0.02 0  0.67 0.02 0  0.68 0.02 0  0.6899999999999999 0.02 0  0.7 0.02 0  0.71 0.02 0  0.72 0.02 0  0.73 0.02 0  0.74 0.02 0  0.75 0.02 0  0.76 0.02 0  0.77 0.02 0  0.78 0.02 0  0.79 0.02 0  0.8 0.02 0  0.8100000000000001 0.02 0  0.82 0.02 0  0.83 0.02 0  0.84 0.02 0  0.85 0.02 0  0.86 0.02 0  0.87 0.02 0  0.88 0.02 0  0.89 0.02 0  0.9 0.02 0  0.91 0.02 0  0.92 0.02 0  0.93 0.02 0  0.9399999999999999 0.02 0  0.95 0.02 0  0.96 0.02 0  0.97 0.02 0  0.98 0.02 0  0.99 0.02 0  1 0.02 0  0 0.03 0  0.01 0.03 0  0.02 0.03 0  0.03 0.03 0  0.04 0.03 0  0.05 0.03 0  0.06 0.03 0  0.07000000000000001 0.03 0  0.08 0.03 0  0.09 0.03 0  0.1 0.03 0  0.11 0.03 0  0.12 0.03 0  0.13 0.03 0  0.14 0.03 0  0.15 0.03 0  0.16 0.03 0  0.17 0.03 0  0.18 0.03 0  0.19 0.03 0  0.2 0.03 0  0.21 0.03 0  0.22 0.03 0  0.23 0.03 0  0.24 0.03 0  0.25 0.03 0  0.26 0.03 0  0.27 0.03 0  0.28 0.03 0  0.29 0.03 0  0.3 0.03 0  0.31 0.03 0  0.32 0.03 0  0.33 0.03 0  0.34 0.03 0  0.35 0.03 0  0.36 0.03 0  0.37 0.03 0  0.38 0.03 0  0.39 0.03 0  0.4 0.03 0  0.41 0.03 0  0.42 0.03 0  0.43 0.03 0  0.44 0.03 0  0.45 0.03 0  0.46 0.03 0  0.47 0.03 0  0.48 0.03 0  0.49 0.03 0  0.5 0.03 0  0.51 0.03 0  0.52 0.03 0  0.53 0.03 0  0.54 0.03 0  0.55 0.03 0  0.5600000000000001 0.03 0  0.57 0.03 0  0.58 0.03 0  0.59 0.03 0  0.6 0.03 0  0.61 0.03 0  0.62 0.03 0  0.63 0.03 0  0.64 0.03 0  0.65 0.03 0  0.66 0.03 0  0.67 0.03 0  0.68 0.03 0  0.6899999999999999 0.03 0  0.7 0.03 0  0.71 0.03 0  0.72 0.03 0  0.73 0.03 0  0.74 0.03 0  0.75 0.03 0  0.76 0.03 0  0.77 0.03 0  0.78 0.03 0  0.79 0.03 0  0.8 0.03 0  0.8100000000000001 0.03 0  0.82 0.03 0  0.83 0.03 0  0.84 0.03 0  0.85 0.03 0  0.86 0.03 0  0.87 0.03 0  0.88 0.03 0  0.89 0.03 0  0.9 0.03 0  0.91 0.03 0  0.92 0.03 0  0.93 0.03 0  0.9399999999999999 0.03 0  0.95 0.03 0  0.96 0.03 0  0.97 0.03 0  0.98 0.03 0  0.99 0.03 0  1 0.03 0  0 0.04 0  0.01 0.04 0  0.02 0.04 0  0.03 0.04 0  0.04 0.04 0  0.05 0.04 0  0.06 0.04 0  0.07000000000000001 0.04 0  0.08 0.04 0  0.09 0.04 0  0.1 0.04 0  0.11 0.04 0  0.12 0.04 0  0.13 0.04 0  0.14 0.04 0  0.15 0.04 0  0.16 0.04 0  0.17 0.04 0  0.18 0.04 0  0.19 0.04 0  0.2 0.04 0  0.21 0.04 0  0.22 0.04 0  0.23 0.04 0  0.24 0.04 0  0.25 0.04 0  0.26 0.04 0  0.27 0.04 0  0.28 0.04 0  0.29 0.04 0  0.3 0.04 0  0.31 0.04 0  0.32 0.04 0  0.33 0.04 0  0.34 0.04 0  0.35 0.04 0  0.36 0.04 0  0.37 0.04 0  0.38 0.04 0  0.39 0.04 0  0.4 0.04 0  0.41 0.04 0  0.42 0.04 0  0.43 0.04 0  0.44 0.04 0  0.45 0.04 0  0.46 0.04 0  0.47 0.04 0  0.48 0.04 0  0.49 0.04 0  0.5 0.04 0  0.51 0.04 0  0.52 0.04 0  0.53 0.04 0  0.54 0.04 0  0.55 0.04 0  0.5600000000000001 0.04 0  0.57 0.04 0  0.58 0.04 0  0.59 0.04 0  0.6 0.04 0  0.61 0.04 0  0.62 0.04 0  0.63 0.04 0  0.64 0.04 0  0.65 0.04 0  0.66 0.04 0  0.67 0.04 0  0.68 0.04 0  0.6899999999999999 0.04 0  0.7 0.04 0  0.71 0.04 0  0.72 0.04 0  0.73 0.04 0  0.74 0.04 0  0.75 0.04 0  0.76 0.04 0  0.77 0.04 0  0.78 0.04 0  0.79 0.04 0  0.8 0.04 0  0.8100000000000001 0.04 0  0.82 0.04 0  0.83 0.04 0  0.84 0.04 0  0.85 0.04 0  0.86 0.04 0  0.87 0.04 0  0.88 0.04 0  0.89 0.04 0  0.9 0.04 0  0.91 0.04 0  0.92 0.04 0  0.93 0.04 0  0.9399999999999999 0.04 0  0.95 0.04 0  0.96 0.04 0  0.97 0.04 0  0.98 0.04 0  0.99 0.04 0  1 0.04 0  0 0.05 0  0.01 0.05 0  0.02 0.05 0  0.03 0.05 0  0.04 0.05 0  0.05 0.05 0  0.06 0.05 0  0.07000000000000001 0.05 0  0.08 0.05 0  0.09 0.05 0  0.1 0.05 0  0.11 0.05 0  0.12 0.05 0  0.13 0.05 0  0.14 0.05 0  0.15 0.05 0  0.16 0.05 0  0.17 0.05 0  0.18 0.05 0  0.19 0.05 0  0.2 0.05 0  0.21 0.05 0  0.22 0.05 0  0.23 0.05 0  0.24 0.05 0  0.25 0.05 0  0.26 0.05 0  0.27 0.05 0  0.28 0.05 0  0.29 0.05 0  0.3 0.05 0  0.31 0.05 0  0.32 0.05 0  0.33 0.05 0  0.34 0.05 0  0.35 0.05 0  0.36 0.05 0  0.37 0.05 0  0.38 0.05 0  0.39 0.05 0  0.4 0.05 0  0.41 0.05 0  0.42 0.05 0  0.43 0.05 0  0.44 0.05 0  0.45 0.05 0  0.46 0.05 0  0.47 0.05 0  0.48 0.05 0  0.49 0.05 0  0.5 0.05 0  0.51 0.05 0  0.52 0.05 0  0.53 0.05 0  0.54 0.05 0  0.55 0.05 0  0.5600000000000001 0.05 0  0.57 0.05 0  0.58 0.05 0  0.59 0.05 0  0.6 0.05 0  0.61 0.05 0  0.62 0.05 0  0.63 0.05 0  0.64 0.05 0  0.65 0.05 0  0.66 0.05 0  0.67 0.05 0  0.68 0.05 0  0.6899999999999999 0.05 0  0.7 0.05 0  0.71 0.05 0  0.72 0.05 0  0.73 0.05 0  0.74 0.05 0  0.75 0.05 0  0.76 0.05 0  0.77 0.05 0  0.78 0.05 0  0.79 0.05 0  0.8 0.05 0  0.8100000000000001 0.05 0  0.82 0.05 0  0.83 0.05 0  0.84 0.05 0  0.85 0.05 0  0.86 0.05 0  0.87 0.05 0  0.88 0.05 0  0.89 0.05 0  0.9 0.05 0  0.91 0.05 0  0.92 0.05 0  0.93 0.05 0  0.9399999999999999 0.05 0  0.95 0.05 0  0.96 0.05 0  0.97 0.05 0  0.98 0.05 0  0.99 0.05 0  1 0.05 0  0 0.06 0  0.01 0.06 0  0.02 0.06 0  0.03 0.06 0  0.04 0.06 0  0.05 0.06 0  0.06 0.06 0  0.07000000000000001 0.06 0  0.08 0.06 0  0.09 0.06 0  0.1 0.06 0  0.11 0.06 0  0.12 0.06 0  0.13 0.06 0  0.14 0.06 0  0.15 0.06 0  0.16 0.06 0  0.17 0.06 0  0.18 0.06 0  0.19 0.06 0  0.2 0.06 0  0.21 0.06 0  0.22 0.06 0  0.23 0.06 0  0.24 0.06 0  0.25 0.06 0  0.26 0.06 0  0.27 0.06 0  0.28 0.06 0  0.29 0.06 0  0.3 0.06 0  0.31 0.06 0  0.32 0.06 0  0.33 0.06 0  0.34 0.06 0  0.35 0.06 0  0.36 0.06 0  0.37 0.06 0  0.38 0.06 0  0.39 0.06 0  0.4 0.06 0  0.41 0.06 0  0.42 0.06 0  0.43 0.06 0  0.44 0.06 0  0.45 0.06 0  0.46 0.06 0  0.47 0.06 0  0.48 0.06 0  0.49 0.06 0  0.5 0.06 0  0.51 0.06 0  0.52 0.06 0  0.53 0.06 0  0.54 0.06 0  0.55 0.06 0  0.5600000000000001 0.06 0  0.57 0.06 0  0.58 0.06 0  0.59 0.06 0  0.6 0.06 0  0.61 0.06 0  0.62 0.06 0  0.63 0.06 0  0.64 0.06 0  0.65 0.06 0  0.66 0.06 0  0.67 0.06 0  0.68 0.06 0  0.6899999999999999 0.06 0  0.7 0.06 0  0.71 0.06 0  0.72 0.06 0  0.73 0.06 0  0.74 0.06 0  0.75 0.06 0  0.76 0.06 0  0.77 0.06 0  0.78 0.06 0  0.79 0.06 0  0.8 0.06 0  0.8100000000000001 0.06 0  0.82 0.06 0  0.83 0.06 0  0.84 0.06 0  0.85 0.06 0  0.86 0.06 0  0.87 0.06 0  0.88 0.06 0  0.89 0.06 0  0.9 0.06 0  0.91 0.06 0  0.92 0.06 0  0.93 0.06 0  0.9399999999999999 0.06 0  0.95 0.06 0  0.96 0.06 0  0.97 0.06 0  0.98 0.06 0  0.99 0.06 0  1 0.06 0  0 0.07000000000000001 0  0.01 0.07000000000000001 0  0.02 0.07000000000000001 0  0.03 0.07000000000000001 0  0.04 0.07000000000000001 0  0.05 0.07000000000000001 0  0.06 0.07000000000000001 0  0.07000000000000001 0.07000000000000001 0  0.08 0.07000000000000001 0  0.09 0.07000000000000001 0  0.1 0.07000000000000001 0  0.11 0.07000000000000001 0  0.12 0.07000000000000001 0  0.13 0.07000000000000001 0  0.14 0.07000000000000001 0  0.15 0.07000000000000001 0  0.16 0.07000000000000001 0  0.17 0.0700
[...]
<PointData  Scalars="f_17"> 
<DataArray  type="Float64"  Name="f_17"  format="ascii">0.0000000000000000e+00  5.0000000000000000e+01  5.0000000000000000e+01  5.0000000000000000e+01  5.0000000000000000e+01  5.0000000000000000e+01  5.0000000000000000e+01  5.0000000000000000e+01  5.0000000000000000e+01  5.0000000000000000e+01  5.0000000000000000e+01  5.0000000000000000e+01  5.0000000000000000e+01  5.0000000000000000e+01  5.0000000000000000e+01  5.0000000000000000e+01  5.0000000000000000e+01  5.0000000000000000e+01  5.0000000000000000e+01  5.0000000000000000e+01  5.0000000000000000e+01  5.0000000000000000e+01  5.0000000000000000e+01  5.0000000000000000e+01  5.0000000000000000e+01  5.0000000000000000e+01  5.0000000000000000e+01  5.0000000000000000e+01  5.0000000000000000e+01  5.0000000000000000e+01  5.0000000000000000e+01  5.0000000000000000e+01  5.0000000000000000e+01  5.0000000000000000e+01  5.0000000000000000e+01  5.0000000000000000e+01  5.0000000000000000e+01  5.0000000000000000e+01  5.0000000000000000e+01  5.0000000000000000e+01  5.0000000000000000e+01  5.0000000000000000e+01  5.0000000000000000e+01  5.0000000000000000e+01  5.0000000000000000e+01  5.0000000000000000e+01  5.0000000000000000e+01  5.0000000000000000e+01  5.0000000000000000e+01  5.0000000000000000e+01  5.0000000000000000e+01  5.0000000000000000e+01  5.0000000000000000e+01  5.0000000000000000e+01  5.0000000000000000e+01  5.0000000000000000e+01  5.0000000000000000e+01  5.0000000000000000e+01  5.0000000000000000e+01  5.0000000000000000e+01  5.0000000000000000e+01  5.0000000000000000e+01  5.0000000000000000e+01  5.0000000000000000e+01  5.0000000000000000e+01  5.0000000000000000e+01  5.0000000000000000e+01  5.0000000000000000e+01  5.0000000000000000e+01  5.0000000000000000e+01  5.0000000000000000e+01  5.0000000000000000e+01  5.0000000000000000e+01  5.0000000000000000e+01  5.0000000000000000e+01  5.0000000000000000e+01  5.0000000000000000e+01  5.0000000000000000e+01  5.0000000000000000e+01  5.0000000000000000e+01  5.0000000000000000e+01  5.0000000000000000e+01  5.0000000000000000e+01  5.0000000000000000e+01  5.0000000000000000e+01  5.0000000000000000e+01  5.0000000000000000e+01  5.0000000000000000e+01  5.0000000000000000e+01  5.0000000000000000e+01  5.0000000000000000e+01  5.0000000000000000e+01  5.0000000000000000e+01  5.0000000000000000e+01  5.0000000000000000e+01  5.0000000000000000e+01  5.0000000000000000e+01  5.0000000000000000e+01  5.0000000000000000e+01  5.0000000000000000e+01  0.0000000000000000e+00  0.0000000000000000e+00  2.4889747760088131e+01  3.5033525058109142e+01  3.9431174263956692e+01  4.1765510425574533e+01  4.3173443718638673e+01  4.4095297281361475e+01  4.4733070719213494e+01  4.5191597032213352e+01  4.5530487877185180e+01  4.5786084784038266e+01  4.5981782813451453e+01  4.6133311683023571e+01  4.6251626157881887e+01  4.6344578182051563e+01  4.6417930209689921e+01  4.6475994091486832e+01  4.6522047927971009e+01  4.6558616360932781e+01  4.6587664138924438e+01  4.6610733017201099e+01  4.6629040672975776e+01  4.6643553557043830e+01  4.6655041472810758e+01  4.6664119086664066e+01  4.6671277916424046e+01  4.6676911261435052e+01  4.6681333816697354e+01  4.6684797225003706e+01  4.6687502484816335e+01  4.6689609896504159e+01  4.6691247062578682e+01  4.6692515337123140e+01  4.6693495031362048e+01  4.6694249616636753e+01  4.6694829116395432e+01  4.6695272840693512e+01  4.6695611587015421e+01  4.6695869407811337e+01  4.6696065026442135e+01  4.6696212968150107e+01  4.6696324460413706e+01  4.6696408147017188e+01  4.6696470651917579e+01  4.6696517022183301e+01  4.6696551073643221e+01  4.6696575658199819e+01  4.6696592867855180e+01  4.6696604187221922e+01  4.6696610603513975e+01  4.6696612680629983e+01  4.6696610601849201e+01  4.6696604183773651e+01  4.6696592862379646e+01  4.6696575650315403e+01  4.6696551062810265e+01  4.6696517007676938e+01  4.6696470632792334e+01  4.6696408122062600e+01  4.6696324428099921e+01  4.6696212926563206e+01  4.6696064973207413e+01  4.6695869340004414e+01  4.6695611501060291e+01  4.6695272732247325e+01  4.6694828980220663e+01  4.6694249446461235e+01  4.6693494819728862e+01  4.6692515075232805e+01  4.6691246740128697e+01  4.6689609501530001e+01  4.6687502003541354e+01  4.6684796641706676e+01  4.6681333113607025e+01  4.6676910418663496e+01  4.6671276911951175e+01  4.6664117896385967e+01  4.6655040070665649e+01  4.6643551915227235e+01  4.6629038762255703e+01  4.6610730807340246e+01  4.6587661599213092e+01  4.6558613460828994e+01  4.6522044637839578e+01  4.6475990383419337e+01  4.6417926058379386e+01  4.6344573565686503e+01  4.6251621059014504e+01  4.6133306089357085e+01  4.5981776718482529e+01  4.5786078187480094e+01  4.5530480785083462e+01  4.5191589456646639e+01  4.4733062677421572e+01  4.4095288794030978e+01  4.3173434806747721e+01  4.1765501104127189e+01  3.9431164526761449e+01  3.5033514827917294e+01  2.4889736663717368e+01  0.0000000000000000e+00  0.0000000000000000e+00  1.4527044635345124e+01  2.4562148982538833e+01  3.0630144879967379e+01  3.4372912482423473e+01  3.6807356162048492e+01  3.8469567043598687e+01  3.9649043986611886e+01  4.0511019230419535e+01  4.1155239098526344e+01  4.1644988706550755e+01  4.2022161280153583e+01  4.2315499887969473e+01  4.2545327194923715e+01  4.2726378949996175e+01  4.2869567293939951e+01  4.2983115732165402e+01  4.3073311975952613e+01  4.3145020968284506e+01  4.3202043100998459e+01  4.3247369909314223e+01  4.3283370262281991e+01  4.3311928403141572e+01  4.3334547953729519e+01  4.3352431401495309e+01  4.3366541610699919e+01  4.3377649934797816e+01  4.3386374188141403e+01  4.3393208835417134e+01  4.3398549133911999e+01  4.3402710525347963e+01  4.3405944261085580e+01  4.3408450017700503e+01  4.3410386093024975e+01  4.3411877648000086e+01  4.3413023365001592e+01  4.3413900820356652e+01  4.3414570811761585e+01  4.3415080836185361e+01  4.3415467877708693e+01  4.3415760635525317e+01  4.3415981298525672e+01  4.3416146953352133e+01  4.3416270696725668e+01  4.3416362509542743e+01  4.3416429939204072e+01  4.3416478627459895e+01  4.3416512713390432e+01  4.3416535134703416e+01  4.3416547845069971e+01  4.3416551960530740e+01  4.3416547843883123e+01  4.3416535132240270e+01  4.3416512709466964e+01  4.3416478621787036e+01  4.3416429931371518e+01  4.3416362498996541e+01  4.3416270682739416e+01  4.3416146934990344e+01  4.3415981274598636e+01  4.3415760604534825e+01  4.3415467837783808e+01  4.3415080785006751e+01  4.3414570746474176e+01  4.3413900737470684e+01  4.3413023260280454e+01  4.3411877516338102e+01  4.3410385928313737e+01  4.3408449812687564e+01  4.3405944007228392e+01  4.3402710212668161e+01  4.3398548750854566e+01  4.3393208368723457e+01  4.3386373622744571e+01  4.3377649253750285e+01  4.3366540795144942e+01  4.3352430430694710e+01  4.3334546805158908e+01  4.3311927052665553e+01  4.3283368684417447e+01  4.3247368077588789e+01  4.3202040988406409e+01  4.3145018547835029e+01  4.3073309221299880e+01  4.2983112618300396e+01  4.2869563797914253e+01  4.2726375051636580e+01  4.2545322877486129e+01  4.2315495138668126e+01  4.2022156090488153e+01  4.1644983072339961e+01  4.1155233019535281e+01  4.0511012709436336e+01  3.9649037027767164e+01  3.8469559649593556e+01  3.6807348329681425e+01  3.4372904195233637e+01  3.0630136096091444e+01  2.4562139620131013e+01  1.4527034624348497e+01  0.0000000000000000e+00  0.0000000000000000e+00  9.9136154838402550e+00  1.8064148820435854e+01  2.4026570093382052e+01  2.8224510723316868e+01  3.1191020186457589e+01  3.3325570068942838e+01  3.4893121312504753e+01  3.6065791408171066e+01  3.6956789609462845e+01  3.7642333354816280e+01  3.8175068059835205e+01  3.8592265006326038e+01  3.8920909168738767e+01  3.9180928300167636e+01  3.9387292587853956e+01  3.9551413211414527e+01  3.9682095710980363e+01  3.9786204236657248e+01  3.9869133922570107e+01  3.9935153261643485e+01  3.9987656653536185e+01  4.0029353709965314e+01  4.0062413231044665e+01  4.0088574133859872e+01  4.0109231894107786e+01  4.0125506565413993e+01  4.0138296741109826e+01  4.0148322649147211e+01  4.0156160748505854e+01  4.0162271611458799e+01  4.0167022455459403e+01  4.0170705381097527e+01  4.0173552144683001e+01  4.0175746122478003e+01  4.0177431992525136e+01  4.0178723558389045e+01  4.0179710059239646e+01  4.0180461247108973e+01  4.0181031460968271e+01  4.0181462885694820e+01  4.0181788149969591e+01  4.0182032389139849e+01  4.0182214875927642e+01  4.0182350302662051e+01  4.0182449782748918e+01  4.0182521625777355e+01  4.0182571929522901e+01  4.0182605022732687e+01  4.0182623784618215e+01  4.0182629860128003e+01  4.0182623784049198e+01  4.0182605021541434e+01  4.0182571927599241e+01  4.0182521622946432e+01  4.0182449778759207e+01  4.0182350297168668e+01  4.0182214868470204e+01  4.0182032379114368e+01  4.0181788136593092e+01  4.0181462867962253e+01  4.0181031437599991e+01  4.0180461216488276e+01  4.0179710019339424e+01  4.0178723506686232e+01  4.0177431925903143e+01  4.0175746037116518e+01  4.0173552035936147e+01  4.0170705243361873e+01  4.0167022282033734e+01  4.0162271394400200e+01  4.0156160478486051e+01  4.0148322315316754e+01  4.0138296330978172e+01  4.0125506064754596e+01  4.0109231286900027e+01  4.0088573402279323e+01  4.0062412355513942e+01  4.0029352669277834e+01  3.9987655425062243e+01  3.9935151821626171e+01  3.9869132246513821e+01  3.9786202299804891e+01  3.9682093488867636e+01  3.9551410680480799e+01  3.9387289726077093e+01  3.9180925087678190e+01  3.8920905588355751e+01  3.8592261043942536e+01  3.8175063704566490e+01  3.7642328598806984e+01  3.6956784447229744e+01  3.6065785835329322e+01  3.4893115323685961e+01  3.3325563654652932e+01  3.1191013328567287e+01  2.8224503388992726e+01  2.4026562228327066e+01  1.8064140346608664e+01  9.9136063066731896e+00  0.0000000000000000e+00  0.0000000000000000e+00  7.3681294675727766e+00  1.3900602275150462e+01  1.9201227609602629e+01  2.3298069303219588e+01  2.6406191960317713e+01  2.8760081843215652e+01  3.0553189111499321e+01  3.1930628862945596e+01  3.2997866789980641e+01  3.3831173592765182e+01  3.4486081849426526e+01  3.5003498804226332e+01  3.5413958701982388e+01  3.5740553469126695e+01  3.6000960325215338e+01  3.6208858997498552e+01  3.6374935526556357e+01  3.6507603720962827e+01  3.6613531513345443e+01  3.6698030701295259e+01  3.6765349663724614e+01  3.6818896164585581e+01  3.6861409041878176e+01  3.6895091984377579e+01  3.6921718791900517e+01  3.6942716896611195e+01  3.6959234101664812e+01  3.6972192212277669e+01  3.6982330322420218e+01  3.6990239863395345e+01  3.6996393041251196e+01  3.7001165935566263e+01  3.7004857266409587e+01  3.7007703634156400e+01  3.7009891880874413e+01  3.7011569099947671e+01  3.7012850723833154e+01  3.7013827042190051e+01  3.7014568439665901e+01  3.7015129591140521e+01  3.7015552809846241e+01  3.7015870708710388e+01  3.7016108306138683e+01  3.7016284683199117e+01  3.7016414278922312e+01  3.7016507893500339e+01  3.7016573454953367e+01  3.7016616592843775e+01  3.7016641052413988e+01  3.7016648973720457e+01  3.7016641052586138e+01  3.7016616593177169e+01  3.7016573455423895e+01  3.7016507894065981e+01  3.7016414279515580e+01  3.7016284683716655e+01  3.7016108306426204e+01  3.7015870708543396e+01  3.7015552808904822e+01  3.7015129588977267e+01  3.7014568435665197e+01  3.7013827035518339e+01  3.7012850713377837e+01  3.7011569084243803e+01  3.7009891858017767e+01  3.7007703601702310e+01  3.7004857221257176e+01  3.7001165873828889e+01  3.6996392958113780e+01  3.6990239752962133e+01  3.6982330177556626e+01  3.6972192024452774e+01  3.6959233860801248e+01  3.6942716590953204e+01  3.6921718407911015e+01  3.6895091506677012e+01  3.6861408453239179e+01  3.6818895445996738e+01  3.6765348794536159e+01  3.6698029659455948e+01  3.6613530275736160e+01  3.6507602263825355e+01  3.6374933826007691e+01  3.6208857030109947e+01  3.6000958068623675e+01  3.5740550902630304e+01  3.5413955807060006e+01  3.5003495564900653e+01  3.4486078252378860e+01  3.3831169627091782e+01  3.2997862446465611e+01  3.1930624132710694e+01  3.0553183983878686e+01  2.8760076302709653e+01  2.6406185982541807e+01  2.3298062849998118e+01  1.9201220623898472e+01  1.3900594676738823e+01  7.3681211466800072e+00  0.0000000000000000e+00  0.0000000000000000e+00  5.7550587583479871e+00  1.1057359409537540e+01  1.5625174002753770e+01  1.9383951178471822e+01  2.2396636229912030e+01  2.4781556355008600e+01  2.6662016053835121e+01  2.8145451116066955e+01  2.9318658242488937e+01  3.0249491299980736e+01  3.0990344931173496e+01  3.1581598721327438e+01  3.2054475472333820e+01  3.2433256419540626e+01  3.2736949373660316e+01  3.2980532083147260e+01  3.3175878443759778e+01  3.3332451727858789e+01  3.3457827434635888e+01  3.3558091281174512e+01  3.3638145141967478e+01  3.3701944551592760e+01  3.3752684822916308e+01  3.3792948169955132e+01  3.3824820909823913e+01  3.3849987454224696e+01  3.3869806105979961e+01  3.3885370452392031e+01  3.3897559256398438e+01  3.3907077091819971e+01  3.3914487482681828e+01  3.3920239941034396e+01  3.3924692019395806e+01  3.3928127279209768e+01  3.3930769908784001e+01  3.3932796591104520e+01  3.3934346115171067e+01  3.3935527137913446e+01  3.3936424432860193e+01  3.3937103903251291e+01  3.3937616588761450e+01  3.3938001854567474e+01  3.3938289917704282e+01  3.3938503837363925e+01  3.3938661072069536e+01  3.3938774686729154e+01  3.3938854275788422e+01  3.3938906654493188e+01  3.3938936358145511e+01  3.3938945978746247e+01  3.3938936359162433e+01  3.3938906656563269e+01  3.3938854278983541e+01  3.3938774691155274e+01  3.3938661077863912e+01  3.3938503844690743e+01  3.3938289926747480e+01  3.3938001865520462e+01  3.3937616601811953e+01  3.3937103918560148e+01  3.3936424450532677e+01  3.3935527157960799e+01  3.3934346137460814e+01  3.3932796615297136e+01  3.3930769934254158e+01  3.3928127304950358e+01  3.3924692043903448e+01  3.3920239962176034e+01  3.3914487497542225e+01  3.3907077096532696e+01  3.3897559245962881e+01  3.3885370420482495e+01  3.3869806044753972e+01  3.3849987354141064e+01  3.3824820759482648e+01  3.3792947955973830e+01  3.3752684529859089e+01  3.3701944161968797e+01  3.3638144636314834e+01  3.3558090638243385e+01  3.3457826631680661e+01  3.3332450741041626e+01  3.3175877248659106e+01  3.2980530655353114e+01  3.2736947689424184e+01  3.2433254456431946e+01  3.2054473209838036e+01  3.1581596141303880e+01  3.0990342018074859e+01  3.0249488040722255e+01  2.9318654625845500e+01  2.8145447131473041e+01  2.6662011689472067e+01  2.4781551595097095e+01  2.2396631051205471e+01  1.9383945546081023e+01  1.5625167865539753e+01  1.1057352695008944e+01  5.7550513658622835e+00  0.0000000000000000e+00  0.0000000000000000e+00  4.6353326995713067e+00  9.0008247355603270e+00  1.2902658045141374e+01  1.6252588037817699e+01  1.9050106144587510e+01  2.1346203117037323e+01  2.3212255010674760e+01  2.4721180860281514e+01  2.5938677188888185e+01  2.6920417954255015e+01  2.7712133211970304e+01  2.8350810038042706e+01  2.8866164162613110e+01  2.9282025189270939e+01  2.9617516808187943e+01  2.9888017013635750e+01  3.0105922296235136e+01  3.0281250102854308e+01  3.0422112677772709e+01  3.0535090404975350e+01  3.0625527179092803e+01  3.0697765333702772e+01  3.0755333572395195e+01  3.0801098157293904e+01  3.0837385174346579e+01  3.0866079858350009e+01  3.0888707583373172e+01  3.0906500091958758e+01  3.0920449760688903e+01  3.0931354113488322e+01  3.0939852347656508e+01  3.0946455294450001e+01  3.0951569969301413e+01  3.0955519656960877e+01  3.0958560309800276e+01  3.0960893902932280e+01  3.0962679280156980e+01  3.0964040934572274e+01  3.0965076092916185e+01  3.0965860410333779e+01  3.0966452529984764e+01  3.0966897717965590e+01  3.0967230747018924e+01  3.0967478171311722e+01  3.0967660108256332e+01  3.0967791621135920e+01  3.0967883777498400e+01  3.0967944442307630e+01  3.0967978851155319e+01  3.0967989996963027e+01  3.0967978853098039e+01  3.0967944446280246e+01  3.0967883783676189e+01  3.0967791629784109e+01  3.0967660119732113e+01  3.0967478186066167e+01  3.0967230765597833e+01  3.0966897741008065e+01  3.0966452558218261e+01  3.0965860444563688e+01  3.0965076134008072e+01  3.0964040983424649e+01  3.0962679337661267e+01  3.0960893969917855e+01  3.0958560386961413e+01  3.0955519744762665e+01  3.0951570067862505e+01  3.0946455403400268e+01  3.0939852465968748e+01  3.0931354239285184e+01  3.0920449891027104e+01  3.0906500222596101e+01  3.0888707708525754e+01  3.0866079970450812e+01  3.0837385263819087e+01  3.0801098212357925e+01  3.0755333578924212e+01  3.0697765275153511e+01  3.0625527036528446e+01  3.0535090157201289e+01  3.0422112301599956e+01  3.0281249573498997e+01  3.0105921587852048e+01  2.9888016099971466e+01  2.9617515663323786e+01  2.9282023788408036e+01  2.8866162482833065e+01  2.8350808058959505e+01  2.7712130916172171e+01  2.6920415327422710e+01  2.5938674219470290e+01  2.4721177538611901e+01  2.3212251327436764e+01  2.1346199061019274e+01  1.9050101699738512e+01  1.6252583179687576e+01  1.2902652736819496e+01  9.0008189231520657e+00  4.6353263071334574e+00  0.0000000000000000e+00  0.0000000000000000e+00  3.8080512976928920e+00  7.4436904685687981e+00  1.0771985262084483e+01  1.3714847930409702e+01  1.6248636461294669e+01  1.8388969322985229e+01  2.0173508558992911e+01  2.1648633116152798e+01  2.2861197120646167e+01  2.3854317032000932e+01  2.4665713856971756e+01  2.5327451732095977e+01  2.5866338433629732e+01  2.6304577571299959e+01  2.6660465269358689e+01  2.6949038163277493e+01  2.7182638743510907e+01  2.7371392545260051e+01  2.7523603977515933e+01  2.7646081831705825e+01  2.7744406014407172e+01  2.7823145994758885e+01  2.7886039904194000e+01  2.7936141653907274e+01  2.7975942036233107e+01  2.8007468605022989e+01  2.8032368181619052e+01  2.8051975078272850e+01  2.8067367535333386e+01  2.8079414399659175e+01  2.8088813701705181e+01  2.8096124495093989e+01  2.8101793087577594e+01  2.8106174602600944e+01  2.8109550655952638e+01  2.8112143804540821e+01  2.8114129318415905e+01  2.8115644738461754e+01  2.8116797607453559e+01  2.8117671698952634e+01  2.8118332014864773e+01  2.8118828776908604e+01  2.8119200598501912e+01  2.8119476990652867e+01  2.8119680327480847e+01  2.8119827373234056e+01  2.8119930452459140e+01  2.8119998327715074e+01  2.8120036834375252e+01  2.8120049309126806e+01  2.8120036837300500e+01  2.8119998333706057e+01  2.8119930461799374e+01  2.8119827386355173e+01  2.8119680344969609e+01  2.8119477013259534e+01  2.8119200627148597e+01  2.8118828812697178e+01  2.8118332059081524e+01  2.8117671753068443e+01  2.8116797673116647e+01  2.8115644817480508e+01  2.8114129412727692e+01  2.8112143916163774e+01  2.8109550786916131e+01  2.8106174754851160e+01  2.8101793262854017e+01  2.8096124694774595e+01  2.8088813926617821e+01  2.8079414649859380e+01  2.8067367809850257e+01  2.8051975374827819e+01  2.8032368496325855e+01  2.8007468932080556e+01  2.7975942367627336e+01  2.7936141979141588e+01  2.7886040210071670e+01  2.7823146265243235e+01  2.7744406230586247e+01  2.7646081971886854e+01  2.7523604017471730e+01  2.7371392458641434e+01  2.7182638502429807e+01  2.6949037739050883e+01  2.6660464633386599e+01  2.6304576696031507e+01  2.5866337293550327e+01  2.5327450304649176e+01  2.4665712123311774e+01  2.3854314977459691e+01  2.2861194734795276e+01  2.1648630392348455e+01  2.0173505493314742e+01  1.8388965912520174e+01  1.6248632701773047e+01  1.3714843813262931e+01  1.0771980771049494e+01  7.4436855760255787e+00  3.8080459610183284e+00  0.0000000000000000e+00  0.0000000000000000e+00  3.1693108654136033e+00  6.2225761685239362e+00  9.0637989996683412e+00  1.1629265839822569e+01  1.3889305020070280e+01  1.5842282080949007e+01  1.7505540695173927e+01  1.8906894417892712e+01  2.0078273208485832e+01  2.1051676442102615e+01  2.1856943754208615e+01  2.2520744109567143e+01  2.3066293632292879e+01  2.3513466540457244e+01  2.3879091830847113e+01  2.4177317259445680e+01  2.4419977862695962e+01  2.4616938887612740e+01  2.4776401076501198e+01  2.4905165705084794e+01  2.5008861339578065e