<?xml version="1.0"?>
<VTKFile type="UnstructuredGrid"  version="0.1"  >
<UnstructuredGrid>
<Piece  NumberOfPoints="10201" NumberOfCells="20000">
<Points>
<DataArray  type="Float64"  NumberOfComponents="3"  format="ascii">0 0 0  0.01 0 0  0.02 0 0  0.03 0 0  0.04 0 0  0.05 0 0  0.06 0 0  0.07000000000000001 0 0  0.08 0 0  0.09 0 0  0.1 0 0  0.11 0 0  0.12 0 0  0.13 0 0  0.14 0 0  0.15 0 0  0.16 0 0  0.17 0 0  0.18 0 0  0.19 0 0  0.2 0 0  0.21 0 0  0.22 0 0  0.23 0 0  0.24 0 0  0.25 0 0  0.26 0 0  0.27 0 0  0.28 0 0  0.29 0 0  0.3 0 0  0.31 0 0  0.32 0 0  0.33 0 0  0.34 0 0  0.35 0 0  0.36 0 0  0.37 0 0  0.38 0 0  0.39 0 0  0.4 0 0  0.41 0 0  0.42 0 0  0.43 0 0  0.44 0 0  0.45 0 0  0.46 0 0  0.47 0 0  0.48 0 0  0.49 0 0  0.5 0 0  0.51 0 0  0.52 0 0  0.53 0 0  0.54 0 0  0.55 0 0  0.5600000000000001 0 0  0.57 0 0  0.58 0 0  0.59 0 0  0.6 0 0  0.61 0 0  0.62 0 0  0.63 0 0  0.64 0 0  0.65 0 0  0.66 0 0  0.67 0 0  0.68 0 0  0.6899999999999999 0 0  0.7 0 0  0.71 0 0  0.72 0 0  0.73 0 0  0.74 0 0  0.75 0 0  0.76 0 0  0.77 0 0  0.78 0 0  0.79 0 0  0.8 0 0  0.8100000000000001 0 0  0.82 0 0  0.83 0 0  0.84 0 0  0.85 0 0  0.86 0 0  0.87 0 0  0.88 0 0  0.89 0 0  0.9 0 0  0.91 0 0  0.92 0 0  0.93 0 0  0.9399999999999999 0 0  0.95 0 0  0.96 0 0  0.97 0 0  0.98 0 0  0.99 0 0  1 0 0  0 0.01 0  0.01 0.01 0  0.02 0.01 0  0.03 0.01 0  0.04 0.01 0  0.05 0.01 0  0.06 0.01 0  0.07000000000000001 0.01 0  0.08 0.01 0  0.09 0.01 0  0.1 0.01 0  0.11 0.01 0  0.12 0.01 0  0.13 0.01 0  0.14 0.01 0  0.15 0.01 0  0.16 0.01 0  0.17 0.01 0  0.18 0.01 0  0.19 0.01 0  0.2 0.01 0  0.21 0.01 0  0.22 0.01 0  0.23 0.01 0  0.24 0.01 0  0.25 0.01 0  0.26 0.01 0  0.27 0.01 0  0.28 0.01 0  0.29 0.01 0  0.3 0.01 0  0.31 0.01 0  0.32 0.01 0  0.33 0.01 0  0.34 0.01 0  0.35 0.01 0  0.36 0.01 0  0.37 0.01 0  0.38 0.01 0  0.39 0.01 0  0.4 0.01 0  0.41 0.01 0  0.42 0.01 0  0.43 0.01 0  0.44 0.01 0  0.45 0.01 0  0.46 0.01 0  0.47 0.01 0  0.48 0.01 0  0.49 0.01 0  0.5 0.01 0  0.51 0.01 0  0.52 0.01 0  0.53 0.01 0  0.54 0.01 0  0.55 0.01 0  0.5600000000000001 0.01 0  0.57 0.01 0  0.58 0.01 0  0.59 0.01 0  0.6 0.01 0  0.61 0.01 0  0.62 0.01 0  0.63 0.01 0  0.64 0.01 0  0.65 0.01 0  0.66 0.01 0  0.67 0.01 0  0.68 0.01 0  0.6899999999999999 0.01 0  0.7 0.01 0  0.71 0.01 0  0.72 0.01 0  0.73 0.01 0  0.74 0.01 0  0.75 0.01 0  0.76 0.01 0  0.77 0.01 0  0.78 0.01 0  0.79 0.01 0  0.8 0.01 0  0.8100000000000001 0.01 0  0.82 0.01 0  0.83 0.01 0  0.84 0.01 0  0.85 0.01 0  0.86 0.01 0  0.87 0.01 0  0.88 0.01 0  0.89 0.01 0  0.9 0.01 0  0.91 0.01 0  0.92 0.01 0  0.93 0.01 0  0.9399999999999999 0.01 0  0.95 0.01 0  0.96 0.01 0  0.97 0.01 0  0.98 0.01 0  0.99 0.01 0  1 0.01 0  0 0.02 0  0.01 0.02 0  0.02 0.02 0  0.03 0.02 0  0.04 0.02 0  0.05 0.02 0  0.06 0.02 0  0.07000000000000001 0.02 0  0.08 0.02 0  0.09 0.02 0  0.1 0.02 0  0.11 0.02 0  0.12 0.02 0  0.13 0.02 0  0.14 0.02 0  0.15 0.02 0  0.16 0.02 0  0.17 0.02 0  0.18 0.02 0  0.19 0.02 0  0.2 0.02 0  0.21 0.02 0  0.22 0.02 0  0.23 0.02 0  0.24 0.02 0  0.25 0.02 0  0.26 0.02 0  0.27 0.02 0  0.28 0.02 0  0.29 0.02 0  0.3 0.02 0  0.31 0.02 0  0.32 0.02 0  0.33 0.02 0  0.34 0.02 0  0.35 0.02 0  0.36 0.02 0  0.37 0.02 0  0.38 0.02 0  0.39 0.02 0  0.4 0.02 0  0.41 0.02 0  0.42 0.02 0  0.43 0.02 0  0.44 0.02 0  0.45 0.02 0  0.46 0.02 0  0.47 0.02 0  0.48 0.02 0  0.49 0.02 0  0.5 0.02 0  0.51 0.02 0  0.52 0.02 0  0.53 0.02 0  0.54 0.02 0  0.55 0.02 0  0.5600000000000001 0.02 0  0.57 0.02 0  0.58 0.02 0  0.59 0.02 0  0.6 0.02 0  0.61 0.02 0  0.62 0.02 0  0.63 0.02 0  0.64 0.02 0  0.65 0.02 0  0.66 0.02 0  0.67 0.02 0  0.68 0.02 0  0.6899999999999999 0.02 0  0.7 0.02 0  0.71 0.02 0  0.72 0.02 0  0.73 0.02 0  0.74 0.02 0  0.75 0.02 0  0.76 0.02 0  0.77 0.02 0  0.78 0.02 0  0.79 0.02 0  0.8 0.02 0  0.8100000000000001 0.02 0  0.82 0.02 0  0.83 0.02 0  0.84 0.02 0  0.85 0.02 0  0.86 0.02 0  0.87 0.02 0  0.88 0.02 0  0.89 0.02 0  0.9 0.02 0  0.91 0.02 0  0.92 0.02 0  0.93 0.02 0  0.9399999999999999 0.02 0  0.95 0.02 0  0.96 0.02 0  0.97 0.02 0  0.98 0.02 0  0.99 0.02 0  1 0.02 0  0 0.03 0  0.01 0.03 0  0.02 0.03 0  0.03 0.03 0  0.04 0.03 0  0.05 0.03 0  0.06 0.03 0  0.07000000000000001 0.03 0  0.08 0.03 0  0.09 0.03 0  0.1 0.03 0  0.11 0.03 0  0.12 0.03 0  0.13 0.03 0  0.14 0.03 0  0.15 0.03 0  0.16 0.03 0  0.17 0.03 0  0.18 0.03 0  0.19 0.03 0  0.2 0.03 0  0.21 0.03 0  0.22 0.03 0  0.23 0.03 0  0.24 0.03 0  0.25 0.03 0  0.26 0.03 0  0.27 0.03 0  0.28 0.03 0  0.29 0.03 0  0.3 0.03 0  0.31 0.03 0  0.32 0.03 0  0.33 0.03 0  0.34 0.03 0  0.35 0.03 0  0.36 0.03 0  0.37 0.03 0  0.38 0.03 0  0.39 0.03 0  0.4 0.03 0  0.41 0.03 0  0.42 0.03 0  0.43 0.03 0  0.44 0.03 0  0.45 0.03 0  0.46 0.03 0  0.47 0.03 0  0.48 0.03 0  0.49 0.03 0  0.5 0.03 0  0.51 0.03 0  0.52 0.03 0  0.53 0.03 0  0.54 0.03 0  0.55 0.03 0  0.5600000000000001 0.03 0  0.57 0.03 0  0.58 0.03 0  0.59 0.03 0  0.6 0.03 0  0.61 0.03 0  0.62 0.03 0  0.63 0.03 0  0.64 0.03 0  0.65 0.03 0  0.66 0.03 0  0.67 0.03 0  0.68 0.03 0  0.6899999999999999 0.03 0  0.7 0.03 0  0.71 0.03 0  0.72 0.03 0  0.73 0.03 0  0.74 0.03 0  0.75 0.03 0  0.76 0.03 0  0.77 0.03 0  0.78 0.03 0  0.79 0.03 0  0.8 0.03 0  0.8100000000000001 0.03 0  0.82 0.03 0  0.83 0.03 0  0.84 0.03 0  0.85 0.03 0  0.86 0.03 0  0.87 0.03 0  0.88 0.03 0  0.89 0.03 0  0.9 0.03 0  0.91 0.03 0  0.92 0.03 0  0.93 0.03 0  0.9399999999999999 0.03 0  0.95 0.03 0  0.96 0.03 0  0.97 0.03 0  0.98 0.03 0  0.99 0.03 0  1 0.03 0  0 0.04 0  0.01 0.04 0  0.02 0.04 0  0.03 0.04 0  0.04 0.04 0  0.05 0.04 0  0.06 0.04 0  0.07000000000000001 0.04 0  0.08 0.04 0  0.09 0.04 0  0.1 0.04 0  0.11 0.04 0  0.12 0.04 0  0.13 0.04 0  0.14 0.04 0  0.15 0.04 0  0.16 0.04 0  0.17 0.04 0  0.18 0.04 0  0.19 0.04 0  0.2 0.04 0  0.21 0.04 0  0.22 0.04 0  0.23 0.04 0  0.24 0.04 0  0.25 0.04 0  0.26 0.04 0  0.27 0.04 0  0.28 0.04 0  0.29 0.04 0  0.3 0.04 0  0.31 0.04 0  0.32 0.04 0  0.33 0.04 0  0.34 0.04 0  0.35 0.04 0  0.36 0.04 0  0.37 0.04 0  0.38 0.04 0  0.39 0.04 0  0.4 0.04 0  0.41 0.04 0  0.42 0.04 0  0.43 0.04 0  0.44 0.04 0  0.45 0.04 0  0.46 0.04 0  0.47 0.04 0  0.48 0.04 0  0.49 0.04 0  0.5 0.04 0  0.51 0.04 0  0.52 0.04 0  0.53 0.04 0  0.54 0.04 0  0.55 0.04 0  0.5600000000000001 0.04 0  0.57 0.04 0  0.58 0.04 0  0.59 0.04 0  0.6 0.04 0  0.61 0.04 0  0.62 0.04 0  0.63 0.04 0  0.64 0.04 0  0.65 0.04 0  0.66 0.04 0  0.67 0.04 0  0.68 0.04 0  0.6899999999999999 0.04 0  0.7 0.04 0  0.71 0.04 0  0.72 0.04 0  0.73 0.04 0  0.74 0.04 0  0.75 0.04 0  0.76 0.04 0  0.77 0.04 0  0.78 0.04 0  0.79 0.04 0  0.8 0.04 0  0.8100000000000001 0.04 0  0.82 0.04 0  0.83 0.04 0  0.84 0.04 0  0.85 0.04 0  0.86 0.04 0  0.87 0.04 0  0.88 0.04 0  0.89 0.04 0  0.9 0.04 0  0.91 0.04 0  0.92 0.04 0  0.93 0.04 0  0.9399999999999999 0.04 0  0.95 0.04 0  0.96 0.04 0  0.97 0.04 0  0.98 0.04 0  0.99 0.04 0  1 0.04 0  0 0.05 0  0.01 0.05 0  0.02 0.05 0  0.03 0.05 0  0.04 0.05 0  0.05 0.05 0  0.06 0.05 0  0.07000000000000001 0.05 0  0.08 0.05 0  0.09 0.05 0  0.1 0.05 0  0.11 0.05 0  0.12 0.05 0  0.13 0.05 0  0.14 0.05 0  0.15 0.05 0  0.16 0.05 0  0.17 0.05 0  0.18 0.05 0  0.19 0.05 0  0.2 0.05 0  0.21 0.05 0  0.22 0.05 0  0.23 0.05 0  0.24 0.05 0  0.25 0.05 0  0.26 0.05 0  0.27 0.05 0  0.28 0.05 0  0.29 0.05 0  0.3 0.05 0  0.31 0.05 0  0.32 0.05 0  0.33 0.05 0  0.34 0.05 0  0.35 0.05 0  0.36 0.05 0  0.37 0.05 0  0.38 0.05 0  0.39 0.05 0  0.4 0.05 0  0.41 0.05 0  0.42 0.05 0  0.43 0.05 0  0.44 0.05 0  0.45 0.05 0  0.46 0.05 0  0.47 0.05 0  0.48 0.05 0  0.49 0.05 0  0.5 0.05 0  0.51 0.05 0  0.52 0.05 0  0.53 0.05 0  0.54 0.05 0  0.55 0.05 0  0.5600000000000001 0.05 0  0.57 0.05 0  0.58 0.05 0  0.59 0.05 0  0.6 0.05 0  0.61 0.05 0  0.62 0.05 0  0.63 0.05 0  0.64 0.05 0  0.65 0.05 0  0.66 0.05 0  0.67 0.05 0  0.68 0.05 0  0.6899999999999999 0.05 0  0.7 0.05 0  0.71 0.05 0  0.72 0.05 0  0.73 0.05 0  0.74 0.05 0  0.75 0.05 0  0.76 0.05 0  0.77 0.05 0  0.78 0.05 0  0.79 0.05 0  0.8 0.05 0  0.8100000000000001 0.05 0  0.82 0.05 0  0.83 0.05 0  0.84 0.05 0  0.85 0.05 0  0.86 0.05 0  0.87 0.05 0  0.88 0.05 0  0.89 0.05 0  0.9 0.05 0  0.91 0.05 0  0.92 0.05 0  0.93 0.05 0  0.9399999999999999 0.05 0  0.95 0.05 0  0.96 0.05 0  0.97 0.05 0  0.98 0.05 0  0.99 0.05 0  1 0.05 0  0 0.06 0  0.01 0.06 0  0.02 0.06 0  0.03 0.06 0  0.04 0.06 0  0.05 0.06 0  0.06 0.06 0  0.07000000000000001 0.06 0  0.08 0.06 0  0.09 0.06 0  0.1 0.06 0  0.11 0.06 0  0.12 0.06 0  0.13 0.06 0  0.14 0.06 0  0.15 0.06 0  0.16 0.06 0  0.17 0.06 0  0.18 0.06 0  0.19 0.06 0  0.2 0.06 0  0.21 0.06 0  0.22 0.06 0  0.23 0.06 0  0.24 0.06 0  0.25 0.06 0  0.26 0.06 0  0.27 0.06 0  0.28 0.06 0  0.29 0.06 0  0.3 0.06 0  0.31 0.06 0  0.32 0.06 0  0.33 0.06 0  0.34 0.06 0  0.35 0.06 0  0.36 0.06 0  0.37 0.06 0  0.38 0.06 0  0.39 0.06 0  0.4 0.06 0  0.41 0.06 0  0.42 0.06 0  0.43 0.06 0  0.44 0.06 0  0.45 0.06 0  0.46 0.06 0  0.47 0.06 0  0.48 0.06 0  0.49 0.06 0  0.5 0.06 0  0.51 0.06 0  0.52 0.06 0  0.53 0.06 0  0.54 0.06 0  0.55 0.06 0  0.5600000000000001 0.06 0  0.57 0.06 0  0.58 0.06 0  0.59 0.06 0  0.6 0.06 0  0.61 0.06 0  0.62 0.06 0  0.63 0.06 0  0.64 0.06 0  0.65 0.06 0  0.66 0.06 0  0.67 0.06 0  0.68 0.06 0  0.6899999999999999 0.06 0  0.7 0.06 0  0.71 0.06 0  0.72 0.06 0  0.73 0.06 0  0.74 0.06 0  0.75 0.06 0  0.76 0.06 0  0.77 0.06 0  0.78 0.06 0  0.79 0.06 0  0.8 0.06 0  0.8100000000000001 0.06 0  0.82 0.06 0  0.83 0.06 0  0.84 0.06 0  0.85 0.06 0  0.86 0.06 0  0.87 0.06 0  0.88 0.06 0  0.89 0.06 0  0.9 0.06 0  0.91 0.06 0  0.92 0.06 0  0.93 0.06 0  0.9399999999999999 0.06 0  0.95 0.06 0  0.96 0.06 0  0.97 0.06 0  0.98 0.06 0  0.99 0.06 0  1 0.06 0  0 0.07000000000000001 0  0.01 0.07000000000000001 0  0.02 0.07000000000000001 0  0.03 0.07000000000000001 0  0.04 0.07000000000000001 0  0.05 0.07000000000000001 0  0.06 0.07000000000000001 0  0.07000000000000001 0.07000000000000001 0  0.08 0.07000000000000001 0  0.09 0.07000000000000001 0  0.1 0.07000000000000001 0  0.11 0.07000000000000001 0  0.12 0.07000000000000001 0  0.13 0.07000000000000001 0  0.14 0.07000000000000001 0  0.15 0.07000000000000001 0  0.16 0.07000000000000001 0  0.17 0.0700
[...]
<PointData  Scalars="f_17"> 
<DataArray  type="Float64"  Name="f_17"  format="ascii">0.0000000000000000e+00  5.0000000000000000e+01  5.0000000000000000e+01  5.0000000000000000e+01  5.0000000000000000e+01  5.0000000000000000e+01  5.0000000000000000e+01  5.0000000000000000e+01  5.0000000000000000e+01  5.0000000000000000e+01  5.0000000000000000e+01  5.0000000000000000e+01  5.0000000000000000e+01  5.0000000000000000e+01  5.0000000000000000e+01  5.0000000000000000e+01  5.0000000000000000e+01  5.0000000000000000e+01  5.0000000000000000e+01  5.0000000000000000e+01  5.0000000000000000e+01  5.0000000000000000e+01  5.0000000000000000e+01  5.0000000000000000e+01  5.0000000000000000e+01  5.0000000000000000e+01  5.0000000000000000e+01  5.0000000000000000e+01  5.0000000000000000e+01  5.0000000000000000e+01  5.0000000000000000e+01  5.0000000000000000e+01  5.0000000000000000e+01  5.0000000000000000e+01  5.0000000000000000e+01  5.0000000000000000e+01  5.0000000000000000e+01  5.0000000000000000e+01  5.0000000000000000e+01  5.0000000000000000e+01  5.0000000000000000e+01  5.0000000000000000e+01  5.0000000000000000e+01  5.0000000000000000e+01  5.0000000000000000e+01  5.0000000000000000e+01  5.0000000000000000e+01  5.0000000000000000e+01  5.0000000000000000e+01  5.0000000000000000e+01  5.0000000000000000e+01  5.0000000000000000e+01  5.0000000000000000e+01  5.0000000000000000e+01  5.0000000000000000e+01  5.0000000000000000e+01  5.0000000000000000e+01  5.0000000000000000e+01  5.0000000000000000e+01  5.0000000000000000e+01  5.0000000000000000e+01  5.0000000000000000e+01  5.0000000000000000e+01  5.0000000000000000e+01  5.0000000000000000e+01  5.0000000000000000e+01  5.0000000000000000e+01  5.0000000000000000e+01  5.0000000000000000e+01  5.0000000000000000e+01  5.0000000000000000e+01  5.0000000000000000e+01  5.0000000000000000e+01  5.0000000000000000e+01  5.0000000000000000e+01  5.0000000000000000e+01  5.0000000000000000e+01  5.0000000000000000e+01  5.0000000000000000e+01  5.0000000000000000e+01  5.0000000000000000e+01  5.0000000000000000e+01  5.0000000000000000e+01  5.0000000000000000e+01  5.0000000000000000e+01  5.0000000000000000e+01  5.0000000000000000e+01  5.0000000000000000e+01  5.0000000000000000e+01  5.0000000000000000e+01  5.0000000000000000e+01  5.0000000000000000e+01  5.0000000000000000e+01  5.0000000000000000e+01  5.0000000000000000e+01  5.0000000000000000e+01  5.0000000000000000e+01  5.0000000000000000e+01  5.0000000000000000e+01  5.0000000000000000e+01  0.0000000000000000e+00  0.0000000000000000e+00  2.4970215603698282e+01  3.5194096511316850e+01  3.9671115460523374e+01  4.2083735318406859e+01  4.3568530923373231e+01  4.4565511867925444e+01  4.5276390261209222e+01  4.5805741175001721e+01  4.6212950623620081e+01  4.6534168660253862e+01  4.6792634071624768e+01  4.7003955722869684e+01  4.7179002400718126e+01  4.7325573706184464e+01  4.7449411548420969e+01  4.7554836699573919e+01  4.7645162933297151e+01  4.7722974330098587e+01  4.7790315693769351e+01  4.7848826239914480e+01  4.7899835327432783e+01  4.7944432231165955e+01  4.7983517809903780e+01  4.8017843322451000e+01  4.8048039973209320e+01  4.8074641672430140e+01  4.8098102763353396e+01  4.8118811969862072e+01  4.8137103473675673e+01  4.8153265788413215e+01  4.8167548926031266e+01  4.8180170227451647e+01  4.8191319139104351e+01  4.8201161150783150e+01  4.8209841060877316e+01  4.8217485697996359e+01  4.8224206199936297e+01  4.8230099929485839e+01  4.8235252090046792e+01  4.8239737091213641e+01  4.8243619704416929e+01  4.8246956040824344e+01  4.8249794377404719e+01  4.8252175852027449e+01  4.8254135044401693e+01  4.8255700456342261e+01  4.8256894902111277e+01  4.8257735817295753e+01  4.8258235492732162e+01  4.8258401238301069e+01  4.8258235479910205e+01  4.8257735791609363e+01  4.8256894863476163e+01  4.8255700404633295e+01  4.8254134979453880e+01  4.8252175773637838e+01  4.8249794285334673e+01  4.8246955934802259e+01  4.8243619584141030e+01  4.8239736956355422e+01  4.8235251940254869e+01  4.8230099764390026e+01  4.8224206019152042e+01  4.8217485501129218e+01  4.8209840847528106e+01  4.8201160920553349e+01  4.8191318891600822e+01  4.8180169962292474e+01  4.8167548642851095e+01  4.8153265486869124e+01  4.8137103153452294e+01  4.8118811630677108e+01  4.8098102404963022e+01  4.8074641294634041e+01  4.8048039575855341e+01  4.8017842905439608e+01  4.7983517373192036e+01  4.7944431774771324e+01  4.7899834851435749e+01  4.7848825744460740e+01  4.7790315179071989e+01  4.7722973796438524e+01  4.7645162381023084e+01  4.7554836129101659e+01  4.7449410960231042e+01  4.7325573100819085e+01  4.7179001778776545e+01  4.7003955085002168e+01  4.6792633418524062e+01  4.6534167992645003e+01  4.6212949942245324e+01  4.5805740480600655e+01  4.5276389554487629e+01  4.4565511149502711e+01  4.3568530193677432e+01  4.2083734577420508e+01  3.9671114707011021e+01  3.5194095739830871e+01  2.4970214789748614e+01  0.0000000000000000e+00  0.0000000000000000e+00  1.4686877757960135e+01  2.4881086478881155e+01  3.1106731000669740e+01  3.5004992409871335e+01  3.7592109627080049e+01  3.9403551559195698e+01  4.0728246492720942e+01  4.1730914710897075e+01  4.2510854588152775e+01  4.3130971029967831e+01  4.3632846852783253e+01  4.4044984957742699e+01  4.4387537006493339e+01  4.4675134461236006e+01  4.4918648257599969e+01  4.5126319162439252e+01  4.5304505239272878e+01  4.5458188959367035e+01  4.5591329179642564e+01  4.5707110472901270e+01  4.5808123007243026e+01  4.5896494481675596e+01  4.5973988357346549e+01  4.6042077999775167e+01  4.6102003342669157e+01  4.6154814693339070e+01  4.6201406957523403e+01  4.6242546641584703e+01  4.6278893350105136e+01  4.6311017045494779e+01  4.6339412013663605e+01  4.6364508246543565e+01  4.6386680781660374e+01  4.6406257412898427e+01  4.6423525092528259e+01  4.6438735273720113e+01  4.6452108388932068e+01  4.6463837618328618e+01  4.6474092070544941e+01  4.6483019473333947e+01  4.6490748452218789e+01  4.6497390459932483e+01  4.6503041407223321e+01  4.6507783035818029e+01  4.6511684066412847e+01  4.6514801148094698e+01  4.6517179630250730e+01  4.6518854173546863e+01  4.6519849212745747e+01  4.6520179280826099e+01  4.6519849200914400e+01  4.6518854149844458e+01  4.6517179594598439e+01  4.6514801100375436e+01  4.6511684006472379e+01  4.6507782963466603e+01  4.6503041322237749e+01  4.6497390362058894e+01  4.6490748341175056e+01  4.6483019348812910e+01  4.6474091932218066e+01  4.6463837465849885e+01  4.6452108221941742e+01  4.6438735091849459e+01  4.6423524895403808e+01  4.6406257200146811e+01  4.6386680552913425e+01  4.6364508001442701e+01  4.6339411751865313e+01  4.6311016766675543e+01  4.6278893053966115e+01  4.6242546327856573e+01  4.6201406625970932e+01  4.6154814343765352e+01  4.6102002974919586e+01  4.6042077613740780e+01  4.5973987952967200e+01  4.5896494058942494e+01  4.5808122566200183e+01  4.5707110013646577e+01  4.5591328702328205e+01  4.5458188464198521e+01  4.5304504726507091e+01  4.5126318632381469e+01  4.4918647710599622e+01  4.4675133897680425e+01  4.4387536426799755e+01  4.4044984362348274e+01  4.3632846242131727e+01  4.3130970404492629e+01  4.2510853948253896e+01  4.1730914056909420e+01  4.0728245824867827e+01  3.9403550877514739e+01  3.7592108931294661e+01  3.5004991699151695e+01  3.1106730273195691e+01  2.4881085731459496e+01  1.4686876990712269e+01  0.0000000000000000e+00  0.0000000000000000e+00  1.0150626673286396e+01  1.8537089773594822e+01  2.4733286018252073e+01  2.9161812010081835e+01  3.2354732051458804e+01  3.4710596454306803e+01  3.6493521217567483e+01  3.7874865530032778e+01  3.8967174959478129e+01  3.9846103404090435e+01  4.0563835948397490e+01  4.1157287421861668e+01  4.1653188651864838e+01  4.2071311951236297e+01  4.2426565419914567e+01  4.2730384698880989e+01  4.2991678407306658e+01  4.3217483661403399e+01  4.3413429234822473e+01  4.3584068531278767e+01  4.3733122805328449e+01  4.3863661441798136e+01  4.3978237392929813e+01  4.4078990197936172e+01  4.4167725248251045e+01  4.4245975427175416e+01  4.4315049518311667e+01  4.4376070573326878e+01  4.4430006582670693e+01  4.4477695189538359e+01  4.4519863752483076e+01  4.4557145745139536e+01  4.4590094248130910e+01  4.4619193114687221e+01  4.4644866261268383e+01  4.4667485435895848e+01  4.4687376741649715e+01  4.4704826134900323e+01  4.4720084072974672e+01  4.4733369450920996e+01  4.4744872939486015e+01  4.4754759814591495e+01  4.4763172351182803e+01  4.4770231840317308e+01  4.4776040277001769e+01  4.4780681756988393e+01  4.4784223613039750e+01  4.4786717314709442e+01  4.4788199150175956e+01  4.4788690703869982e+01  4.4788199139360259e+01  4.4786717293040553e+01  4.4784223580442983e+01  4.4780681713352720e+01  4.4776040222181010e+01  4.4770231774131695e+01  4.4763172273420842e+01  4.4754759725012462e+01  4.4744872837822470e+01  4.4733369336881715e+01  4.4720083946248089e+01  4.4704825995157918e+01  4.4687376588549952e+01  4.4667485269088360e+01  4.4644866080397996e+01  4.4619192919398365e+01  4.4590094038072181e+01  4.4557145519968202e+01  4.4519863511869488e+01  4.4477694933170866e+01  4.4430006310259493e+01  4.4376070284608367e+01  4.4315049213052490e+01  4.4245975105175852e+01  4.4167724909348365e+01  4.4078989842007353e+01  4.3978237019893477e+01  4.3863661051616191e+01  4.3733122398006770e+01  4.3584068106866880e+01  4.3413428793412614e+01  4.3217483203128246e+01  4.2991677932335655e+01  4.2730384207415504e+01  4.2426564912181526e+01  4.2071311427479330e+01  4.1653188112333829e+01  4.1157286866799240e+01  4.0563835378021700e+01  3.9846102818573208e+01  3.8967174358917092e+01  3.7874864914414033e+01  3.6493520586714865e+01  3.4710595807811309e+01  3.2354731388580667e+01  2.9161811329632727e+01  2.4733285318546539e+01  1.8537089052870790e+01  1.0150625930987147e+01  0.0000000000000000e+00  0.0000000000000000e+00  7.6791102435230334e+00  1.4521146660371649e+01  2.0128515405763611e+01  2.4527925804224722e+01  2.7933152766826574e+01  3.0577476304526463e+01  3.2653240014019133e+01  3.4304565596298914e+01  3.5636048949320617e+01  3.6723221827192226e+01  3.7621012741414638e+01  3.8369860656615181e+01  3.8999965304876604e+01  3.9534213202089539e+01  3.9990198300646497e+01  4.0381630347762552e+01  4.0719328358908214e+01  4.1011930690413848e+01  4.1266409376313476e+01  4.1488447597115652e+01  4.1682720215157609e+01  4.1853104784173787e+01  4.2002842073676540e+01  4.2134659498646656e+01  4.2250866985011577e+01  4.2353432133047299e+01  4.2444039674651350e+01  4.2524138900359276e+01  4.2594981787911664e+01  4.2657653881892507e+01  4.2713099475880178e+01  4.2762142281450153e+01  4.2805502495315622e+01  4.2843810971029690e+01  4.2877621046681675e+01  4.2907418461838326e+01  4.2933629706179303e+01  4.2956629072000077e+01  4.2976744627986534e+01  4.2994263288683335e+01  4.3009435120120074e+01  4.3022476995043334e+01  4.3033575689561111e+01  4.3042890495535957e+01  4.3050555408846705e+01  4.3056680941960472e+01  4.3061355599556059e+01  4.3064647047776923e+01  4.3066603000713073e+01  4.3067251841618102e+01  4.3066602990931912e+01  4.3064647028178520e+01  4.3061355570068528e+01  4.3056680902476991e+01  4.3050555359226465e+01  4.3042890435605877e+01  4.3033575619117613e+01  4.3022476913854454e+01  4.3009435027927971e+01  4.2994263185207288e+01  4.2976744512925841e+01  4.2956628945037565e+01  4.2933629566984756e+01  4.2907418310072622e+01  4.2877620882000585e+01  4.2843810793088011e+01  4.2805502303771121e+01  4.2762142075968121e+01  4.2713099256137518e+01  4.2657653647581704e+01  4.2594981538744925e+01  4.2524138636071996e+01  4.2444039395005632e+01  4.2353431837835053e+01  4.2250866674057114e+01  4.2134659171808579e+01  4.2002841730849305e+01  4.1853104425288244e+01  4.1682719840180773e+01  4.1488447206049806e+01  4.1266408969193542e+01  4.1011930267304223e+01  4.0719327919897580e+01  4.0381629892957584e+01  3.9990197830163531e+01  3.9534212716043932e+01  3.8999964803370041e+01  3.8369860139719457e+01  3.7621012209152070e+01  3.6723221279511080e+01  3.5636048386064601e+01  3.4304565017169232e+01  3.2653239418526297e+01  3.0577475691932449e+01  2.7933152136079848e+01  2.4527925153910246e+01  2.0128514734124394e+01  1.4521145965464756e+01  7.6791095232930022e+00  0.0000000000000000e+00  0.0000000000000000e+00  6.1358624915492133e+00  1.1817235740164314e+01  1.6760680626282525e+01  2.0889992269979636e+01  2.4266541318203821e+01  2.7007181874671708e+01  2.9233866686830527e+01  3.1052817561127338e+01  3.2549767719129441e+01  3.3791666912446019e+01  3.4830169985825442e+01  3.5705082200560518e+01  3.6447215104043394e+01  3.7080596123135038e+01  3.7624128287679675e+01  3.8092822859991273e+01  3.8498713007971688e+01  3.8851533211392130e+01  3.9159227503702304e+01  3.9428332536309533e+01  3.9664268691606679e+01  3.9871563219742654e+01  4.0054022747632558e+01  4.0214867779341105e+01  4.0356838427486856e+01  4.0482278190610771e+01  4.0593200841793482e+01  4.0691344222759234e+01  4.0778213807647781e+01  4.0855118214965280e+01  4.0923198336899333e+01  4.0983451373987300e+01  4.1036750775720918e+01  4.1083862869407348e+01  4.1125460792681224e+01  4.1162136216533938e+01  4.1194409246097649e+01  4.1222736808699416e+01  4.1247519777681987e+01  4.1269109032283737e+01  4.1287810615550491e+01  4.1303890121594925e+01  4.1317576418831301e+01  4.1329064795786358e+01  4.1338519599716513e+01  4.1346076424753399e+01  4.1351843895038272e+01  4.1355905078790528e+01  4.1358318561090684e+01  4.1359119196014781e+01  4.1358318552357105e+01  4.1355905061287984e+01  4.1351843868696449e+01  4.1346076389467591e+01  4.1338519555348860e+01  4.1329064742167326e+01  4.1317576355761155e+01  4.1303890048846249e+01  4.1287810532870303e+01  4.1269108939396205e+01  4.1247519674291446e+01  4.1222736694493683e+01  4.1194409120751388e+01  4.1162136079712347e+01  4.1125460644043834e+01  4.1083862708611818e+01  4.1036750602427041e+01  4.0983451187861043e+01  4.0923198137616701e+01  4.0855118002215939e+01  4.0778213581139028e+01  4.0691343982219280e+01  4.0593200586974085e+01  4.0482277921290454e+01  4.0356838143472551e+01  4.0214867480469884e+01  4.0054022433772388e+01  3.9871562890792568e+01  3.9664268347495579e+01  3.9428332176994530e+01  3.9159227129165302e+01  3.8851532821635473e+01  3.8498712603012081e+01  3.8092822439852149e+01  3.7624127852381420e+01  3.7080595672683202e+01  3.6447214638413939e+01  3.5705081719682411e+01  3.4830169489559260e+01  3.3791666400558334e+01  3.2549767191262106e+01  3.1052817016760667e+01  2.9233866125240361e+01  2.7007181294881590e+01  2.4266540718937168e+01  2.0889991649623425e+01  1.6760679982874073e+01  1.1817235071378027e+01  6.1358617945609559e+00  0.0000000000000000e+00  0.0000000000000000e+00  5.0809801652579871e+00  9.8901005851197041e+00  1.4231549580797882e+01  1.8015154738196092e+01  2.1238571271688595e+01  2.3951071675811534e+01  2.6222454718185720e+01  2.8124222231986526e+01  2.9720828464292623e+01  3.1066890372299522e+01  3.2207272107545677e+01  3.3178287355554708e+01  3.4009168253300743e+01  3.4723444152662182e+01  3.5340112127130816e+01  3.5874584787108056e+01  3.6339439964773007e+01  3.6745007159679943e+01  3.7099824439263976e+01  3.7410994455768353e+01  3.7684462593271938e+01  3.7925235192567634e+01  3.8137551644366603e+01  3.8325020874240160e+01  3.8490730232414244e+01  3.8637332894831957e+01  3.8767118441133263e+01  3.8882070187910678e+01  3.8983912034094416e+01  3.9074146952913132e+01  3.9154088791519939e+01  3.9224888677765342e+01  3.9287557056009703e+01  3.9342982159682002e+01  3.9391945562156224e+01  3.9435135317962533e+01  3.9473157104785926e+01  3.9506543696649786e+01  3.9535763035246937e+01  3.9561225115838674e+01  3.9583287863650078e+01  3.9602262144064881e+01  3.9618416023471553e+01  3.9631978376026872e+01  3.9643141913853100e+01  3.9652065703463023e+01  3.9658877218868135e+01  3.9663673971354612e+01  3.9666524746884264e+01  3.9667470474152005e+01  3.9666524739206054e+01  3.9663673955962999e+01  3.9658877195692973e+01  3.9652065672399992e+01  3.9643141874764716e+01  3.9631978328743855e+01  3.9618415967794597e+01  3.9602262079766746e+01  3.9583287790477812e+01  3.9561225033516209e+01  3.9535762943477991e+01  3.9506543595121123e+01  3.9473156993170633e+01  3.9435135195923451e+01  3.9391945429349761e+01  3.9342982015761841e+01  3.9287556900630491e+01  3.9224888510586702e+01  3.9154088612209939e+01  3.9074146761152278e+01  3.8983911829578837e+01  3.8882069970355282e+01  3.8767118210274511e+01  3.8637332650430267e+01  3.8490729974255750e+01  3.8325020602137805e+01  3.8137551358160657e+01  3.7925234892125182e+01  3.7684462278485476e+01  3.7410994126553135e+01  3.7099824095554389e+01  3.6745006801423990e+01  3.6339439591925796e+01  3.5874584399623025e+01  3.5340111724949168e+01  3.4723443735699909e+01  3.4009167821433294e+01  3.3178286908598331e+01  3.2207271645235629e+01  3.1066889894264435e+01  2.9720827970024455e+01  2.8124221720806116e+01  2.6222454189204154e+01  2.3951071127888671e+01  2.1238570703391336e+01  1.8015154147759429e+01  1.4231548966085482e+01  9.8900999435632642e+00  5.0809794937331310e+00  0.0000000000000000e+00  0.0000000000000000e+00  4.3128543874947081e+00  8.4510191758814681e+00  1.2277315179857075e+01  1.5711480577304497e+01  1.8727802123577845e+01  2.1339959499903195e+01  2.3583834273359130e+01  2.5504204736028672e+01  2.7146520905198454e+01  2.8552703375206523e+01  2.9759492156425932e+01  3.0798186946368030e+01  3.1695044691335770e+01  3.2471924632435673e+01  3.3146974183885753e+01  3.3735263090493461e+01  3.4249332555114314e+01  3.4699654503713717e+01  3.5095008431056698e+01  3.5442787474361261e+01  3.5749245805039450e+01  3.6019698300319540e+01  3.6258681821248310e+01  3.6470085766236693e+01  3.6657258086398556e+01  3.6823091699119246e+01  3.6970095216649582e+01  3.7100451089973284e+01  3.7216063621188312e+01  3.7318598787882834e+01  3.7409517422378237e+01  3.7490102974012906e+01  3.7561484835179066e+01  3.7624658016841309e+01  3.7680499805216165e+01  3.7729783909188015e+01  3.7773192510913354e+01  3.7811326554507268e+01  3.7844714545524575e+01  3.7873820083873241e+01  3.7899048312291264e+01  3.7920751429586701e+01  3.7939233390924620e+01  3.7954753895310674e+01  3.7967531742091815e+01  3.7977747622991572e+01  3.7985546403293704e+01  3.7991038934772000e+01  3.7994303433422147e+01  3.7995386446628473e+01  3.7994303426802666e+01  3.7991038921497299e+01  3.7985546383292693e+01  3.7977747596158409e+01  3.7967531708286970e+01  3.7954753854362330e+01  3.7939233342630175e+01  3.7920751373715127e+01  3.7899048248585117e+01  3.7873820012051183e+01  3.7844714465284376e+01  3.7811326465528872e+01  3.7773192412862137e+01  3.7729783801718241e+01  3.7680499687974610e+01  3.7624657889470953e+01  3.7561484697322832e+01  3.7490102825317493e+01  3.7409517262497531e+01  3.7318598616481836e+01  3.7216063437946254e+01  3.7100450894586629e+01  3.6970095008834775e+01  3.6823091478614792e+01  3.6657257852966815e+01  3.6470085519664657e+01  3.6258681561347892e+01  3.6019698026926825e+01  3.5749245518012863e+01  3.5442787173578665e+01  3.5095008116411343e+01  3.4699654175108122e+01  3.4249332212453432e+01  3.3735262733675206e+01  3.3146973812790058e+01  3.2471924246910945e+01  3.1695044291183027e+01  3.0798186531322113e+01  2.9759491726133934e+01  2.8552702929202585e+01  2.7146520442875179e+01  2.5504204256605103e+01  2.3583833775845704e+01  2.1339958983064115e+01  1.8727801585892344e+01  1.5711480016926286e+01  1.2277314594568466e+01  8.4510185630329229e+00  4.3128537439188772e+00  0.0000000000000000e+00  0.0000000000000000e+00  3.7270096537860247e+00  7.3354701738059047e+00  1.0726916177815076e+01  1.3835244462509269e+01  1.6628506127724378e+01  1.9102934330107878e+01  2.1273913530774472e+01  2.3167494829116816e+01  2.4814060853274992e+01  2.6244291661786285e+01  2.7486942945604024e+01  2.8567837066314109e+01  2.9509577789595731e+01  3.0331653529914995e+01  3.1050722341643258e+01  3.1680960873153261e+01  3.2234415245310629e+01  3.2721324449920871e+01  3.3150404921790354e+01  3.3529094345565099e+01  3.3863757259335593e