<?xml version="1.0"?>
<VTKFile type="UnstructuredGrid"  version="0.1"  >
<UnstructuredGrid>
<Piece  NumberOfPoints="10201" NumberOfCells="20000">
<Points>
<DataArray  type="Float64"  NumberOfComponents="3"  format="ascii">0 0 0  0.01 0 0  0.02 0 0  0.03 0 0  0.04 0 0  0.05 0 0  0.06 0 0  0.07000000000000001 0 0  0.08 0 0  0.09 0 0  0.1 0 0  0.11 0 0  0.12 0 0  0.13 0 0  0.14 0 0  0.15 0 0  0.16 0 0  0.17 0 0  0.18 0 0  0.19 0 0  0.2 0 0  0.21 0 0  0.22 0 0  0.23 0 0  0.24 0 0  0.25 0 0  0.26 0 0  0.27 0 0  0.28 0 0  0.29 0 0  0.3 0 0  0.31 0 0  0.32 0 0  0.33 0 0  0.34 0 0  0.35 0 0  0.36 0 0  0.37 0 0  0.38 0 0  0.39 0 0  0.4 0 0  0.41 0 0  0.42 0 0  0.43 0 0  0.44 0 0  0.45 0 0  0.46 0 0  0.47 0 0  0.48 0 0  0.49 0 0  0.5 0 0  0.51 0 0  0.52 0 0  0.53 0 0  0.54 0 0  0.55 0 0  0.5600000000000001 0 0  0.57 0 0  0.58 0 0  0.59 0 0  0.6 0 0  0.61 0 0  0.62 0 0  0.63 0 0  0.64 0 0  0.65 0 0  0.66 0 0  0.67 0 0  0.68 0 0  0.6899999999999999 0 0  0.7 0 0  0.71 0 0  0.72 0 0  0.73 0 0  0.74 0 0  0.75 0 0  0.76 0 0  0.77 0 0  0.78 0 0  0.79 0 0  0.8 0 0  0.8100000000000001 0 0  0.82 0 0  0.83 0 0  0.84 0 0  0.85 0 0  0.86 0 0  0.87 0 0  0.88 0 0  0.89 0 0  0.9 0 0  0.91 0 0  0.92 0 0  0.93 0 0  0.9399999999999999 0 0  0.95 0 0  0.96 0 0  0.97 0 0  0.98 0 0  0.99 0 0  1 0 0  0 0.01 0  0.01 0.01 0  0.02 0.01 0  0.03 0.01 0  0.04 0.01 0  0.05 0.01 0  0.06 0.01 0  0.07000000000000001 0.01 0  0.08 0.01 0  0.09 0.01 0  0.1 0.01 0  0.11 0.01 0  0.12 0.01 0  0.13 0.01 0  0.14 0.01 0  0.15 0.01 0  0.16 0.01 0  0.17 0.01 0  0.18 0.01 0  0.19 0.01 0  0.2 0.01 0  0.21 0.01 0  0.22 0.01 0  0.23 0.01 0  0.24 0.01 0  0.25 0.01 0  0.26 0.01 0  0.27 0.01 0  0.28 0.01 0  0.29 0.01 0  0.3 0.01 0  0.31 0.01 0  0.32 0.01 0  0.33 0.01 0  0.34 0.01 0  0.35 0.01 0  0.36 0.01 0  0.37 0.01 0  0.38 0.01 0  0.39 0.01 0  0.4 0.01 0  0.41 0.01 0  0.42 0.01 0  0.43 0.01 0  0.44 0.01 0  0.45 0.01 0  0.46 0.01 0  0.47 0.01 0  0.48 0.01 0  0.49 0.01 0  0.5 0.01 0  0.51 0.01 0  0.52 0.01 0  0.53 0.01 0  0.54 0.01 0  0.55 0.01 0  0.5600000000000001 0.01 0  0.57 0.01 0  0.58 0.01 0  0.59 0.01 0  0.6 0.01 0  0.61 0.01 0  0.62 0.01 0  0.63 0.01 0  0.64 0.01 0  0.65 0.01 0  0.66 0.01 0  0.67 0.01 0  0.68 0.01 0  0.6899999999999999 0.01 0  0.7 0.01 0  0.71 0.01 0  0.72 0.01 0  0.73 0.01 0  0.74 0.01 0  0.75 0.01 0  0.76 0.01 0  0.77 0.01 0  0.78 0.01 0  0.79 0.01 0  0.8 0.01 0  0.8100000000000001 0.01 0  0.82 0.01 0  0.83 0.01 0  0.84 0.01 0  0.85 0.01 0  0.86 0.01 0  0.87 0.01 0  0.88 0.01 0  0.89 0.01 0  0.9 0.01 0  0.91 0.01 0  0.92 0.01 0  0.93 0.01 0  0.9399999999999999 0.01 0  0.95 0.01 0  0.96 0.01 0  0.97 0.01 0  0.98 0.01 0  0.99 0.01 0  1 0.01 0  0 0.02 0  0.01 0.02 0  0.02 0.02 0  0.03 0.02 0  0.04 0.02 0  0.05 0.02 0  0.06 0.02 0  0.07000000000000001 0.02 0  0.08 0.02 0  0.09 0.02 0  0.1 0.02 0  0.11 0.02 0  0.12 0.02 0  0.13 0.02 0  0.14 0.02 0  0.15 0.02 0  0.16 0.02 0  0.17 0.02 0  0.18 0.02 0  0.19 0.02 0  0.2 0.02 0  0.21 0.02 0  0.22 0.02 0  0.23 0.02 0  0.24 0.02 0  0.25 0.02 0  0.26 0.02 0  0.27 0.02 0  0.28 0.02 0  0.29 0.02 0  0.3 0.02 0  0.31 0.02 0  0.32 0.02 0  0.33 0.02 0  0.34 0.02 0  0.35 0.02 0  0.36 0.02 0  0.37 0.02 0  0.38 0.02 0  0.39 0.02 0  0.4 0.02 0  0.41 0.02 0  0.42 0.02 0  0.43 0.02 0  0.44 0.02 0  0.45 0.02 0  0.46 0.02 0  0.47 0.02 0  0.48 0.02 0  0.49 0.02 0  0.5 0.02 0  0.51 0.02 0  0.52 0.02 0  0.53 0.02 0  0.54 0.02 0  0.55 0.02 0  0.5600000000000001 0.02 0  0.57 0.02 0  0.58 0.02 0  0.59 0.02 0  0.6 0.02 0  0.61 0.02 0  0.62 0.02 0  0.63 0.02 0  0.64 0.02 0  0.65 0.02 0  0.66 0.02 0  0.67 0.02 0  0.68 0.02 0  0.6899999999999999 0.02 0  0.7 0.02 0  0.71 0.02 0  0.72 0.02 0  0.73 0.02 0  0.74 0.02 0  0.75 0.02 0  0.76 0.02 0  0.77 0.02 0  0.78 0.02 0  0.79 0.02 0  0.8 0.02 0  0.8100000000000001 0.02 0  0.82 0.02 0  0.83 0.02 0  0.84 0.02 0  0.85 0.02 0  0.86 0.02 0  0.87 0.02 0  0.88 0.02 0  0.89 0.02 0  0.9 0.02 0  0.91 0.02 0  0.92 0.02 0  0.93 0.02 0  0.9399999999999999 0.02 0  0.95 0.02 0  0.96 0.02 0  0.97 0.02 0  0.98 0.02 0  0.99 0.02 0  1 0.02 0  0 0.03 0  0.01 0.03 0  0.02 0.03 0  0.03 0.03 0  0.04 0.03 0  0.05 0.03 0  0.06 0.03 0  0.07000000000000001 0.03 0  0.08 0.03 0  0.09 0.03 0  0.1 0.03 0  0.11 0.03 0  0.12 0.03 0  0.13 0.03 0  0.14 0.03 0  0.15 0.03 0  0.16 0.03 0  0.17 0.03 0  0.18 0.03 0  0.19 0.03 0  0.2 0.03 0  0.21 0.03 0  0.22 0.03 0  0.23 0.03 0  0.24 0.03 0  0.25 0.03 0  0.26 0.03 0  0.27 0.03 0  0.28 0.03 0  0.29 0.03 0  0.3 0.03 0  0.31 0.03 0  0.32 0.03 0  0.33 0.03 0  0.34 0.03 0  0.35 0.03 0  0.36 0.03 0  0.37 0.03 0  0.38 0.03 0  0.39 0.03 0  0.4 0.03 0  0.41 0.03 0  0.42 0.03 0  0.43 0.03 0  0.44 0.03 0  0.45 0.03 0  0.46 0.03 0  0.47 0.03 0  0.48 0.03 0  0.49 0.03 0  0.5 0.03 0  0.51 0.03 0  0.52 0.03 0  0.53 0.03 0  0.54 0.03 0  0.55 0.03 0  0.5600000000000001 0.03 0  0.57 0.03 0  0.58 0.03 0  0.59 0.03 0  0.6 0.03 0  0.61 0.03 0  0.62 0.03 0  0.63 0.03 0  0.64 0.03 0  0.65 0.03 0  0.66 0.03 0  0.67 0.03 0  0.68 0.03 0  0.6899999999999999 0.03 0  0.7 0.03 0  0.71 0.03 0  0.72 0.03 0  0.73 0.03 0  0.74 0.03 0  0.75 0.03 0  0.76 0.03 0  0.77 0.03 0  0.78 0.03 0  0.79 0.03 0  0.8 0.03 0  0.8100000000000001 0.03 0  0.82 0.03 0  0.83 0.03 0  0.84 0.03 0  0.85 0.03 0  0.86 0.03 0  0.87 0.03 0  0.88 0.03 0  0.89 0.03 0  0.9 0.03 0  0.91 0.03 0  0.92 0.03 0  0.93 0.03 0  0.9399999999999999 0.03 0  0.95 0.03 0  0.96 0.03 0  0.97 0.03 0  0.98 0.03 0  0.99 0.03 0  1 0.03 0  0 0.04 0  0.01 0.04 0  0.02 0.04 0  0.03 0.04 0  0.04 0.04 0  0.05 0.04 0  0.06 0.04 0  0.07000000000000001 0.04 0  0.08 0.04 0  0.09 0.04 0  0.1 0.04 0  0.11 0.04 0  0.12 0.04 0  0.13 0.04 0  0.14 0.04 0  0.15 0.04 0  0.16 0.04 0  0.17 0.04 0  0.18 0.04 0  0.19 0.04 0  0.2 0.04 0  0.21 0.04 0  0.22 0.04 0  0.23 0.04 0  0.24 0.04 0  0.25 0.04 0  0.26 0.04 0  0.27 0.04 0  0.28 0.04 0  0.29 0.04 0  0.3 0.04 0  0.31 0.04 0  0.32 0.04 0  0.33 0.04 0  0.34 0.04 0  0.35 0.04 0  0.36 0.04 0  0.37 0.04 0  0.38 0.04 0  0.39 0.04 0  0.4 0.04 0  0.41 0.04 0  0.42 0.04 0  0.43 0.04 0  0.44 0.04 0  0.45 0.04 0  0.46 0.04 0  0.47 0.04 0  0.48 0.04 0  0.49 0.04 0  0.5 0.04 0  0.51 0.04 0  0.52 0.04 0  0.53 0.04 0  0.54 0.04 0  0.55 0.04 0  0.5600000000000001 0.04 0  0.57 0.04 0  0.58 0.04 0  0.59 0.04 0  0.6 0.04 0  0.61 0.04 0  0.62 0.04 0  0.63 0.04 0  0.64 0.04 0  0.65 0.04 0  0.66 0.04 0  0.67 0.04 0  0.68 0.04 0  0.6899999999999999 0.04 0  0.7 0.04 0  0.71 0.04 0  0.72 0.04 0  0.73 0.04 0  0.74 0.04 0  0.75 0.04 0  0.76 0.04 0  0.77 0.04 0  0.78 0.04 0  0.79 0.04 0  0.8 0.04 0  0.8100000000000001 0.04 0  0.82 0.04 0  0.83 0.04 0  0.84 0.04 0  0.85 0.04 0  0.86 0.04 0  0.87 0.04 0  0.88 0.04 0  0.89 0.04 0  0.9 0.04 0  0.91 0.04 0  0.92 0.04 0  0.93 0.04 0  0.9399999999999999 0.04 0  0.95 0.04 0  0.96 0.04 0  0.97 0.04 0  0.98 0.04 0  0.99 0.04 0  1 0.04 0  0 0.05 0  0.01 0.05 0  0.02 0.05 0  0.03 0.05 0  0.04 0.05 0  0.05 0.05 0  0.06 0.05 0  0.07000000000000001 0.05 0  0.08 0.05 0  0.09 0.05 0  0.1 0.05 0  0.11 0.05 0  0.12 0.05 0  0.13 0.05 0  0.14 0.05 0  0.15 0.05 0  0.16 0.05 0  0.17 0.05 0  0.18 0.05 0  0.19 0.05 0  0.2 0.05 0  0.21 0.05 0  0.22 0.05 0  0.23 0.05 0  0.24 0.05 0  0.25 0.05 0  0.26 0.05 0  0.27 0.05 0  0.28 0.05 0  0.29 0.05 0  0.3 0.05 0  0.31 0.05 0  0.32 0.05 0  0.33 0.05 0  0.34 0.05 0  0.35 0.05 0  0.36 0.05 0  0.37 0.05 0  0.38 0.05 0  0.39 0.05 0  0.4 0.05 0  0.41 0.05 0  0.42 0.05 0  0.43 0.05 0  0.44 0.05 0  0.45 0.05 0  0.46 0.05 0  0.47 0.05 0  0.48 0.05 0  0.49 0.05 0  0.5 0.05 0  0.51 0.05 0  0.52 0.05 0  0.53 0.05 0  0.54 0.05 0  0.55 0.05 0  0.5600000000000001 0.05 0  0.57 0.05 0  0.58 0.05 0  0.59 0.05 0  0.6 0.05 0  0.61 0.05 0  0.62 0.05 0  0.63 0.05 0  0.64 0.05 0  0.65 0.05 0  0.66 0.05 0  0.67 0.05 0  0.68 0.05 0  0.6899999999999999 0.05 0  0.7 0.05 0  0.71 0.05 0  0.72 0.05 0  0.73 0.05 0  0.74 0.05 0  0.75 0.05 0  0.76 0.05 0  0.77 0.05 0  0.78 0.05 0  0.79 0.05 0  0.8 0.05 0  0.8100000000000001 0.05 0  0.82 0.05 0  0.83 0.05 0  0.84 0.05 0  0.85 0.05 0  0.86 0.05 0  0.87 0.05 0  0.88 0.05 0  0.89 0.05 0  0.9 0.05 0  0.91 0.05 0  0.92 0.05 0  0.93 0.05 0  0.9399999999999999 0.05 0  0.95 0.05 0  0.96 0.05 0  0.97 0.05 0  0.98 0.05 0  0.99 0.05 0  1 0.05 0  0 0.06 0  0.01 0.06 0  0.02 0.06 0  0.03 0.06 0  0.04 0.06 0  0.05 0.06 0  0.06 0.06 0  0.07000000000000001 0.06 0  0.08 0.06 0  0.09 0.06 0  0.1 0.06 0  0.11 0.06 0  0.12 0.06 0  0.13 0.06 0  0.14 0.06 0  0.15 0.06 0  0.16 0.06 0  0.17 0.06 0  0.18 0.06 0  0.19 0.06 0  0.2 0.06 0  0.21 0.06 0  0.22 0.06 0  0.23 0.06 0  0.24 0.06 0  0.25 0.06 0  0.26 0.06 0  0.27 0.06 0  0.28 0.06 0  0.29 0.06 0  0.3 0.06 0  0.31 0.06 0  0.32 0.06 0  0.33 0.06 0  0.34 0.06 0  0.35 0.06 0  0.36 0.06 0  0.37 0.06 0  0.38 0.06 0  0.39 0.06 0  0.4 0.06 0  0.41 0.06 0  0.42 0.06 0  0.43 0.06 0  0.44 0.06 0  0.45 0.06 0  0.46 0.06 0  0.47 0.06 0  0.48 0.06 0  0.49 0.06 0  0.5 0.06 0  0.51 0.06 0  0.52 0.06 0  0.53 0.06 0  0.54 0.06 0  0.55 0.06 0  0.5600000000000001 0.06 0  0.57 0.06 0  0.58 0.06 0  0.59 0.06 0  0.6 0.06 0  0.61 0.06 0  0.62 0.06 0  0.63 0.06 0  0.64 0.06 0  0.65 0.06 0  0.66 0.06 0  0.67 0.06 0  0.68 0.06 0  0.6899999999999999 0.06 0  0.7 0.06 0  0.71 0.06 0  0.72 0.06 0  0.73 0.06 0  0.74 0.06 0  0.75 0.06 0  0.76 0.06 0  0.77 0.06 0  0.78 0.06 0  0.79 0.06 0  0.8 0.06 0  0.8100000000000001 0.06 0  0.82 0.06 0  0.83 0.06 0  0.84 0.06 0  0.85 0.06 0  0.86 0.06 0  0.87 0.06 0  0.88 0.06 0  0.89 0.06 0  0.9 0.06 0  0.91 0.06 0  0.92 0.06 0  0.93 0.06 0  0.9399999999999999 0.06 0  0.95 0.06 0  0.96 0.06 0  0.97 0.06 0  0.98 0.06 0  0.99 0.06 0  1 0.06 0  0 0.07000000000000001 0  0.01 0.07000000000000001 0  0.02 0.07000000000000001 0  0.03 0.07000000000000001 0  0.04 0.07000000000000001 0  0.05 0.07000000000000001 0  0.06 0.07000000000000001 0  0.07000000000000001 0.07000000000000001 0  0.08 0.07000000000000001 0  0.09 0.07000000000000001 0  0.1 0.07000000000000001 0  0.11 0.07000000000000001 0  0.12 0.07000000000000001 0  0.13 0.07000000000000001 0  0.14 0.07000000000000001 0  0.15 0.07000000000000001 0  0.16 0.07000000000000001 0  0.17 0.0700
[...]
<PointData  Scalars="f_17"> 
<DataArray  type="Float64"  Name="f_17"  format="ascii">0.0000000000000000e+00  5.0000000000000000e+01  5.0000000000000000e+01  5.0000000000000000e+01  5.0000000000000000e+01  5.0000000000000000e+01  5.0000000000000000e+01  5.0000000000000000e+01  5.0000000000000000e+01  5.0000000000000000e+01  5.0000000000000000e+01  5.0000000000000000e+01  5.0000000000000000e+01  5.0000000000000000e+01  5.0000000000000000e+01  5.0000000000000000e+01  5.0000000000000000e+01  5.0000000000000000e+01  5.0000000000000000e+01  5.0000000000000000e+01  5.0000000000000000e+01  5.0000000000000000e+01  5.0000000000000000e+01  5.0000000000000000e+01  5.0000000000000000e+01  5.0000000000000000e+01  5.0000000000000000e+01  5.0000000000000000e+01  5.0000000000000000e+01  5.0000000000000000e+01  5.0000000000000000e+01  5.0000000000000000e+01  5.0000000000000000e+01  5.0000000000000000e+01  5.0000000000000000e+01  5.0000000000000000e+01  5.0000000000000000e+01  5.0000000000000000e+01  5.0000000000000000e+01  5.0000000000000000e+01  5.0000000000000000e+01  5.0000000000000000e+01  5.0000000000000000e+01  5.0000000000000000e+01  5.0000000000000000e+01  5.0000000000000000e+01  5.0000000000000000e+01  5.0000000000000000e+01  5.0000000000000000e+01  5.0000000000000000e+01  5.0000000000000000e+01  5.0000000000000000e+01  5.0000000000000000e+01  5.0000000000000000e+01  5.0000000000000000e+01  5.0000000000000000e+01  5.0000000000000000e+01  5.0000000000000000e+01  5.0000000000000000e+01  5.0000000000000000e+01  5.0000000000000000e+01  5.0000000000000000e+01  5.0000000000000000e+01  5.0000000000000000e+01  5.0000000000000000e+01  5.0000000000000000e+01  5.0000000000000000e+01  5.0000000000000000e+01  5.0000000000000000e+01  5.0000000000000000e+01  5.0000000000000000e+01  5.0000000000000000e+01  5.0000000000000000e+01  5.0000000000000000e+01  5.0000000000000000e+01  5.0000000000000000e+01  5.0000000000000000e+01  5.0000000000000000e+01  5.0000000000000000e+01  5.0000000000000000e+01  5.0000000000000000e+01  5.0000000000000000e+01  5.0000000000000000e+01  5.0000000000000000e+01  5.0000000000000000e+01  5.0000000000000000e+01  5.0000000000000000e+01  5.0000000000000000e+01  5.0000000000000000e+01  5.0000000000000000e+01  5.0000000000000000e+01  5.0000000000000000e+01  5.0000000000000000e+01  5.0000000000000000e+01  5.0000000000000000e+01  5.0000000000000000e+01  5.0000000000000000e+01  5.0000000000000000e+01  5.0000000000000000e+01  5.0000000000000000e+01  0.0000000000000000e+00  0.0000000000000000e+00  2.4349083966178647e+01  3.3968806094787134e+01  3.7873618630152393e+01  3.9756693053792084e+01  4.0760912239837523e+01  4.1328645530973731e+01  4.1660893269560681e+01  4.1859412282416827e+01  4.1979522938336387e+01  4.2052734474380728e+01  4.2097545204652860e+01  4.2125028611670622e+01  4.2141895714760274e+01  4.2152244537237159e+01  4.2158588433963388e+01  4.2162472273554080e+01  4.2164846345960555e+01  4.2166295066203482e+01  4.2167177522488039e+01  4.2167714061095296e+01  4.2168039675315157e+01  4.2168236920281757e+01  4.2168356187524267e+01  4.2168428176549114e+01  4.2168471553749264e+01  4.2168497647049733e+01  4.2168513317880247e+01  4.2168522714555515e+01  4.2168528340550907e+01  4.2168531704047304e+01  4.2168533712085669e+01  4.2168534909280666e+01  4.2168535622119393e+01  4.2168536046027924e+01  4.2168536297811549e+01  4.2168536447186085e+01  4.2168536535705421e+01  4.2168536588105148e+01  4.2168536619091192e+01  4.2168536637395960e+01  4.2168536648198625e+01  4.2168536654567681e+01  4.2168536658318786e+01  4.2168536660525220e+01  4.2168536661820355e+01  4.2168536662577417e+01  4.2168536663014912e+01  4.2168536663259694e+01  4.2168536663382810e+01  4.2168536663420255e+01  4.2168536663382760e+01  4.2168536663259466e+01  4.2168536663014457e+01  4.2168536662576749e+01  4.2168536661819346e+01  4.2168536660523415e+01  4.2168536658315702e+01  4.2168536654562530e+01  4.2168536648190027e+01  4.2168536637381422e+01  4.2168536619066771e+01  4.2168536588064278e+01  4.2168536535636996e+01  4.2168536447071709e+01  4.2168536297620513e+01  4.2168536045709558e+01  4.2168535621589776e+01  4.2168534908401128e+01  4.2168533710627983e+01  4.2168531701636724e+01  4.2168528336573438e+01  4.2168522708008375e+01  4.2168513307130915e+01  4.2168497629449305e+01  4.2168471525015377e+01  4.2168428129785632e+01  4.2168356111674122e+01  4.2168236797698341e+01  4.2168039477978965e+01  4.2167713744765244e+01  4.2167177017741786e+01  4.2166294264850364e+01  4.2164845080679733e+01  4.2162470287797746e+01  4.2158585338191237e+01  4.2152239746519939e+01  4.2141888361965414e+01  4.2125017430373688e+01  4.2097528377600469e+01  4.2052709448420579e+01  4.1979486217664380e+01  4.1859359231749238e+01  4.1660817989544270e+01  4.1328540906570723e+01  4.0760770287170537e+01  3.9756505625343863e+01  3.7873378126037878e+01  3.3968504097876632e+01  2.4348698167216106e+01  0.0000000000000000e+00  0.0000000000000000e+00  1.3495523486922837e+01  2.2530134999230324e+01  2.7655651977711109e+01  3.0533614692660802e+01  3.2192563888052774e+01  3.3172914522979575e+01  3.3762717018425072e+01  3.4121743047967819e+01  3.4341870382181312e+01  3.4477385959787497e+01  3.4560974445747064e+01  3.4612559256427247e+01  3.4644379040109378e+01  3.4663985304924687e+01  3.4676047691973110e+01  3.4683455627655782e+01  3.4687996270718507e+01  3.4690773784596047e+01  3.4692469286974209e+01  3.4693502152326282e+01  3.4694130069667423e+01  3.4694511040834300e+01  3.4694741733967220e+01  3.4694881163625162e+01  3.4694965279955099e+01  3.4695015936748348e+01  3.4695046391501329e+01  3.4695064670821857e+01  3.4695075624996214e+01  3.4695082179506095e+01  3.4695086095727582e+01  3.4695088432332355e+01  3.4695089824584286e+01  3.4695090653074800e+01  3.4695091145472368e+01  3.4695091437768809e+01  3.4695091611081402e+01  3.4695091713730150e+01  3.4695091774461410e+01  3.4695091810355336e+01  3.4695091831548197e+01  3.4695091844048562e+01  3.4695091851413906e+01  3.4695091855747954e+01  3.4695091858293033e+01  3.4695091859781137e+01  3.4695091860641455e+01  3.4695091861122982e+01  3.4695091861365320e+01  3.4695091861438954e+01  3.4695091861365306e+01  3.4695091861122954e+01  3.4695091860641426e+01  3.4695091859781130e+01  3.4695091858293132e+01  3.4695091855748089e+01  3.4695091851414041e+01  3.4695091844048868e+01  3.4695091831548709e+01  3.4695091810356104e+01  3.4695091774462647e+01  3.4695091713732111e+01  3.4695091611084401e+01  3.4695091437773364e+01  3.4695091145478955e+01  3.4695090653084051e+01  3.4695089824596721e+01  3.4695088432347703e+01  3.4695086095743754e+01  3.4695082179516824e+01  3.4695075624985861e+01  3.4695064670755876e+01  3.4695046391307862e+01  3.4695015936283731e+01  3.4694965278939939e+01  3.4694881161528073e+01  3.4694741729795794e+01  3.4694511032762151e+01  3.4694130054377510e+01  3.4693502123864626e+01  3.4692469234770535e+01  3.4690773690079745e+01  3.4687996101596411e+01  3.4683455328348224e+01  3.4676047167832500e+01  3.4663984396567770e+01  3.4644377482361620e+01  3.4612556613945465e+01  3.4560970014501095e+01  3.4477378620905839e+01  3.4341858393934835e+01  3.4121723766680418e+01  3.3762686557021830e+01  3.3172867398242545e+01  3.2192492787793988e+01  3.0533510611492979e+01  2.7655505065834255e+01  2.2529936443266486e+01  1.3495270008033756e+01  0.0000000000000000e+00  0.0000000000000000e+00  8.4793975836181321e+00  1.5237117808457336e+01  1.9884298381056368e+01  2.2871581892153866e+01  2.4748605312461301e+01  2.5921675529138138e+01  2.6654686435701308e+01  2.7113037470674900e+01  2.7399700044345902e+01  2.7578882960115774e+01  2.7690743758835911e+01  2.7760452797503806e+01  2.7803801229814571e+01  2.7830693690103519e+01  2.7847335598143705e+01  2.7857607836571336e+01  2.7863932140373414e+01  2.7867815949008499e+01  2.7870195104074892e+01  2.7871649011652902e+01  2.7872535419533953e+01  2.7873074618787040e+01  2.7873401900006279e+01  2.7873600137826578e+01  2.7873719972545299e+01  2.7873792273790073e+01  2.7873835816051109e+01  2.7873861992581723e+01  2.7873877702774291e+01  2.7873887116254167e+01  2.7873892748059614e+01  2.7873896112415174e+01  2.7873898119379092e+01  2.7873899314979152e+01  2.7873900026299044e+01  2.7873900448966982e+01  2.7873900699814889e+01  2.7873900848517529e+01  2.7873900936570223e+01  2.7873900988653613e+01  2.7873901019428796e+01  2.7873901037594415e+01  2.7873901048305218e+01  2.7873901054612055e+01  2.7873901058317973e+01  2.7873901060486020e+01  2.7873901061740167e+01  2.7873901062442428e+01  2.7873901062796048e+01  2.7873901062903570e+01  2.7873901062796175e+01  2.7873901062442719e+01  2.7873901061740728e+01  2.7873901060486986e+01  2.7873901058319635e+01  2.7873901054614866e+01  2.7873901048309904e+01  2.7873901037602270e+01  2.7873901019441949e+01  2.7873900988675530e+01  2.7873900936606784e+01  2.7873900848578245e+01  2.7873900699915570e+01  2.7873900449133540e+01  2.7873900026573978e+01  2.7873899315431853e+01  2.7873898120122561e+01  2.7873896113632874e+01  2.7873892750048135e+01  2.7873887119491304e+01  2.7873877708026178e+01  2.7873862001071153e+01  2.7873835829719621e+01  2.7873792295702767e+01  2.7873720007510425e+01  2.7873600193333392e+01  2.7873401987627325e+01  2.7873074756243472e+01  2.7872535633683260e+01  2.7871649342714754e+01  2.7870195611440231e+01  2.7867816718922867e+01  2.7863933295556926e+01  2.7857609547261479e+01  2.7847338092855239e+01  2.7830697262180422e+01  2.7803806232054807e+01  2.7760459611153497e+01  2.7690752714707617e+01  2.7578894179117821e+01  2.7399713155623687e+01  2.7113051166985141e+01  2.6654697857605321e+01  2.5921679569028850e+01  2.4748594150213535e+01  2.2871545458132452e+01  1.9884226901754506e+01  1.5237007587343308e+01  8.4792587871924088e+00  0.0000000000000000e+00  0.0000000000000000e+00  5.6395632697218563e+00  1.0490845806389409e+01  1.4199365660162231e+01  1.6825117744787455e+01  1.8603588185937390e+01  1.9778599979276080e+01  2.0543677795533227e+01  2.1037159056665729e+01  2.1353274923918512e+01  2.1554645919265035e+01  2.1682298075326351e+01  2.1762858885899302e+01  2.1813489215521937e+01  2.1845184089686132e+01  2.1864951323015791e+01  2.1877235945368977e+01  2.1884844690919927e+01  2.1889542253691086e+01  2.1892433667625248e+01  2.1894208236471105e+01  2.1895294371746559e+01  2.1895957417975829e+01  2.1896361183862897e+01  2.1896606482570625e+01  2.1896755175903980e+01  2.1896845118642524e+01  2.1896899414161119e+01  2.1896932127683066e+01  2.1896951801818282e+01  2.1896963613349403e+01  2.1896970692706859e+01  2.1896974929052217e+01  2.1896977460270122e+01  2.1896978970479964e+01  2.1896979870271426e+01  2.1896980405659665e+01  2.1896980723817212e+01  2.1896980912653127e+01  2.1896981024601260e+01  2.1896981090892684e+01  2.1896981130104855e+01  2.1896981153274020e+01  2.1896981166948205e+01  2.1896981175007486e+01  2.1896981179747272e+01  2.1896981182522424e+01  2.1896981184128986e+01  2.1896981185029173e+01  2.1896981185482709e+01  2.1896981185620671e+01  2.1896981185482982e+01  2.1896981185029833e+01  2.1896981184130219e+01  2.1896981182524552e+01  2.1896981179750863e+01  2.1896981175013551e+01  2.1896981166958394e+01  2.1896981153291037e+01  2.1896981130133266e+01  2.1896981090940134e+01  2.1896981024680258e+01  2.1896980912784375e+01  2.1896980724034794e+01  2.1896980406019622e+01  2.1896979870865607e+01  2.1896978971458402e+01  2.1896977461877224e+01  2.1896974931684845e+01  2.1896970697006999e+01  2.1896963620351624e+01  2.1896951813182696e+01  2.1896932146061612e+01  2.1896899443768614e+01  2.1896845166141322e+01  2.1896755251761487e+01  2.1896606603122461e+01  2.1896361374412265e+01  2.1895957717388288e+01  2.1895294839153983e+01  2.1894208960867843e+01  2.1892434781282830e+01  2.1889543950351520e+01  2.1884847249494044e+01  2.1877239759083146e+01  2.1864956932171481e+01  2.1845192212755411e+01  2.1813500767348973e+01  2.1762874962455417e+01  2.1682319871526374e+01  2.1554674531540787e+01  2.1353310979088160e+01  2.1037202119154575e+01  2.0543725567900857e+01  1.9778647476983927e+01  1.8603627391182389e+01  1.6825138713697612e+01  1.4199360400325382e+01  1.0490815602414077e+01  5.6395271890606873e+00  0.0000000000000000e+00  0.0000000000000000e+00  3.8434571738168839e+00  7.2835712897064289e+00  1.0082498579159873e+01  1.2200083104433805e+01  1.3722167245125704e+01  1.4778579602471350e+01  1.5494296063759846e+01  1.5970885124587571e+01  1.6284146540590420e+01  1.6487951148866582e+01  1.6619426527935229e+01  1.6703630849353907e+01  1.6757219350234930e+01  1.6791131118613556e+01  1.6812481425483458e+01  1.6825860444824706e+01  1.6834208261014137e+01  1.6839396139695090e+01  1.6842608305238826e+01  1.6844590317683682e+01  1.6845809344088416e+01  1.6846556836139918e+01  1.6847013889708325e+01  1.6847292609593413e+01  1.6847462151159931e+01  1.6847565036472620e+01  1.6847627331903013e+01  1.6847664970800441e+01  1.6847687666512456e+01  1.6847701325600362e+01  1.6847709531233178e+01  1.6847714452235088e+01  1.6847717398569060e+01  1.6847719159859064e+01  1.6847720211170675e+01  1.6847720837803191e+01  1.6847721210797765e+01  1.6847721432528392e+01  1.6847721564173842e+01  1.6847721642240167e+01  1.6847721688479982e+01  1.6847721715836965e+01  1.6847721732002778e+01  1.6847721741541772e+01  1.6847721747158072e+01  1.6847721750449900e+01  1.6847721752357401e+01  1.6847721753427113e+01  1.6847721753966386e+01  1.6847721754130536e+01  1.6847721753966869e+01  1.6847721753428182e+01  1.6847721752359373e+01  1.6847721750453317e+01  1.6847721747163838e+01  1.6847721741551485e+01  1.6847721732019050e+01  1.6847721715864179e+01  1.6847721688525407e+01  1.6847721642315836e+01  1.6847721564299615e+01  1.6847721432737107e+01  1.6847721211143362e+01  1.6847720838374141e+01  1.6847720212111799e+01  1.6847719161406570e+01  1.6847717401107030e+01  1.6847714456385937e+01  1.6847709538001823e+01  1.6847701336602849e+01  1.6847687684336361e+01  1.6847664999569577e+01  1.6847627378155611e+01  1.6847565110517003e+01  1.6847462269147794e+01  1.6847292796659019e+01  1.6847014184666360e+01  1.6846557298420663e+01  1.6845810063812632e+01  1.6844591430018848e+01  1.6842610010375811e+01  1.6839398729821649e+01  1.6834212155317797e+01  1.6825866232460257e+01  1.6812489914011454e+01  1.6791143380854500e+01  1.6757236754852446e+01  1.6703655049063965e+01  1.6619459364449479e+01  1.6487994418919083e+01  1.6284201562326484e+01  1.5970952068676656e+01  1.5494373103800992e+01  1.4778662139223330e+01  1.3722247791361918e+01  1.2200152793433915e+01  1.0082551324279809e+01  7.2836106697305016e+00  3.8435036582358690e+00  0.0000000000000000e+00  0.0000000000000000e+00  2.6422149672476620e+00  5.0629996518614639e+00  7.1119016579544576e+00  8.7354050988807934e+00  9.9570004504022229e+00  1.0840755809141704e+01  1.1461408379096923e+01  1.1887517327351155e+01  1.2174929088304685e+01  1.2366056685384901e+01  1.2491679085900003e+01  1.2573437519506257e+01  1.2626199134514243e+01  1.2659996680376251e+01  1.2681504644731865e+01  1.2695111473556606e+01  1.2703674030410141e+01  1.2709036265775289e+01  1.2712379456920642e+01  1.2714455340113817e+01  1.2715739459322846e+01  1.2716531025402432e+01  1.2717017381108569e+01  1.2717315301632540e+01  1.2717497276547203e+01  1.2717608133850733e+01  1.2717675497980009e+01  1.2717716336351966e+01  1.2717741038899337e+01  1.2717755949739015e+01  1.2717764932268237e+01  1.2717770333299008e+01  1.2717773575037549e+01  1.2717775517449702e+01  1.2717776679440760e+01  1.2717777373498446e+01  1.2717777787451189e+01  1.2717778033996751e+01  1.2717778180639726e+01  1.2717778267749454e+01  1.2717778319430616e+01  1.2717778350054889e+01  1.2717778368178552e+01  1.2717778378888113e+01  1.2717778385202175e+01  1.2717778388907714e+01  1.2717778391057440e+01  1.2717778392264197e+01  1.2717778392873054e+01  1.2717778393058493e+01  1.2717778392873720e+01  1.2717778392265700e+01  1.2717778391060197e+01  1.2717778388912480e+01  1.2717778385210247e+01  1.2717778378901661e+01  1.2717778368201186e+01  1.2717778350092704e+01  1.2717778319493627e+01  1.2717778267854243e+01  1.2717778180813619e+01  1.2717778034284766e+01  1.2717777787927233e+01  1.2717777374283481e+01  1.2717776680732232e+01  1.2717775519568983e+01  1.2717773578505877e+01  1.2717770338958790e+01  1.2717764941475771e+01  1.2717755964668997e+01  1.2717741063022903e+01  1.2717716375182532e+01  1.2717675560228273e+01  1.2717608233198396e+01  1.2717497434345658e+01  1.2717315550965585e+01  1.2717017772834204e+01  1.2716531637011315e+01  1.2715740407710873e+01  1.2714456799631765e+01  1.2712381684259450e+01  1.2709039633221035e+01  1.2703679068494839e+01  1.2695118922708268e+01  1.2681515512565792e+01  1.2660012295959520e+01  1.2626221182468607e+01  1.2573468024871550e+01  1.2491720306516587e+01  1.2366110856961818e+01  1.2174997969559454e+01  1.1887601529309320e+01  1.1461506563616823e+01  1.0840864034124408e+01  9.9571122104206857e+00  8.7355128354656006e+00  7.1120003814199748e+00  5.0630924017970855e+00  2.6423181352051737e+00  0.0000000000000000e+00  0.0000000000000000e+00  1.8178014529047781e+00  3.5085244153793425e+00  4.9781825345062352e+00  6.1821199327885692e+00  7.1205922133524302e+00  7.8231728539149250e+00  8.3323757707091772e+00  8.6919502199506873e+00  8.9405760165977313e+00  9.1095452122450666e+00  9.2227397741086445e+00  9.2976535838390824e+00  9.3467177416832428e+00  9.3785614558330916e+00  9.3990643124525644e+00  9.4121719199264806e+00  9.4204985935153669e+00  9.4257578942100828e+00  9.4290625158119621e+00  9.4311290827503278e+00  9.4324157963737516e+00  9.4332137328577765e+00  9.4337067253931295e+00  9.4340102645270481e+00  9.4341965570834514e+00  9.4343105495521637e+00  9.4343801065420134e+00  9.4344224382166644e+00  9.4344481373957603e+00  9.4344637029688609e+00  9.4344731101726946e+00  9.4344787837669433e+00  9.4344821988927539e+00  9.4344842507657116e+00  9.4344854814049004e+00  9.4344862182659792e+00  9.4344866587704974e+00  9.4344869217110645e+00  9.4344870784357013e+00  9.4344871717216083e+00  9.4344872271733919e+00  9.4344872600923306e+00  9.4344872796081951e+00  9.4344872911597424e+00  9.4344872979810628e+00  9.4344873019902717e+00  9.4344873043193509e+00  9.4344873056283305e+00  9.4344873062893715e+00  9.4344873064908317e+00  9.4344873062902153e+00  9.4344873056302614e+00  9.4344873043228823e+00  9.4344873019963824e+00  9.4344872979913905e+00  9.4344872911770548e+00  9.4344872796370947e+00  9.4344872601405054e+00  9.4344872272535198e+00  9.4344871718546059e+00  9.4344870786559945e+00  9.4344869220752070e+00  9.4344866593710748e+00  9.4344862192541949e+00  9.4344854830269220e+00  9.4344842534210009e+00  9.4344822032273097e+00  9.4344787908215562e+00  9.4344731216174811e+00  9.4344637214722589e+00  9.4344481672011984e+00  9.4344224860377022e+00  9.4343801829410179e+00  9.4343106710453846e+00  9.4341967493236858e+00  9.4340105670622361e+00  9.4337071986904508e+00  9.4332144685183206e+00  9.4324169317281328e+00  9.4311308212785487e+00  9.4290651549811670e+00  9.4257618622012966e+00  9.4205044956304125e+00  9.4121805937885252e+00  9.3990768878362072e+00  9.3785794093803929e+00  9.3467429283205892e+00  9.2976882155528511e+00  9.2227863047965872e+00  9.1096060800529308e+00  8.9406532034242048e+00  8.6920446291665634e+00  8.3324865192511979e+00  7.8232967335407633e+00  7.1207237656696787e+00  6.1822526858253521e+00  4.9783117478791503e+00  3.5086509754988966e+00  1.8179355131374855e+00  0.0000000000000000e+00  0.0000000000000000e+00  1.2464882514122420e+00  2.4179782991086558e+00  3.4558344640963727e+00  4.3273791429087609e+00  5.0258051434612074e+00  5.5636347318040063e+00  5.9641837791453973e+00  6.2542988436210578e+00  6.4596010389763521e+00  6.6020799603603075e+00  6.6993422524498794e+00  6.7648086752781946e+00  6.8083409959301191e+00  6.8369830229406308e+00  6.8556532798038088e+00  6.8677233794678711e+00  6.8754692295723556e+00  6.8804072015005602e+00  6.8835363418106112e+00  6.8855084698728639e+00  6.8867452254762567e