<?xml version="1.0"?>
<VTKFile type="UnstructuredGrid"  version="0.1"  >
<UnstructuredGrid>
<Piece  NumberOfPoints="10201" NumberOfCells="20000">
<Points>
<DataArray  type="Float64"  NumberOfComponents="3"  format="ascii">0 0 0  0.01 0 0  0.02 0 0  0.03 0 0  0.04 0 0  0.05 0 0  0.06 0 0  0.07000000000000001 0 0  0.08 0 0  0.09 0 0  0.1 0 0  0.11 0 0  0.12 0 0  0.13 0 0  0.14 0 0  0.15 0 0  0.16 0 0  0.17 0 0  0.18 0 0  0.19 0 0  0.2 0 0  0.21 0 0  0.22 0 0  0.23 0 0  0.24 0 0  0.25 0 0  0.26 0 0  0.27 0 0  0.28 0 0  0.29 0 0  0.3 0 0  0.31 0 0  0.32 0 0  0.33 0 0  0.34 0 0  0.35 0 0  0.36 0 0  0.37 0 0  0.38 0 0  0.39 0 0  0.4 0 0  0.41 0 0  0.42 0 0  0.43 0 0  0.44 0 0  0.45 0 0  0.46 0 0  0.47 0 0  0.48 0 0  0.49 0 0  0.5 0 0  0.51 0 0  0.52 0 0  0.53 0 0  0.54 0 0  0.55 0 0  0.5600000000000001 0 0  0.57 0 0  0.58 0 0  0.59 0 0  0.6 0 0  0.61 0 0  0.62 0 0  0.63 0 0  0.64 0 0  0.65 0 0  0.66 0 0  0.67 0 0  0.68 0 0  0.6899999999999999 0 0  0.7 0 0  0.71 0 0  0.72 0 0  0.73 0 0  0.74 0 0  0.75 0 0  0.76 0 0  0.77 0 0  0.78 0 0  0.79 0 0  0.8 0 0  0.8100000000000001 0 0  0.82 0 0  0.83 0 0  0.84 0 0  0.85 0 0  0.86 0 0  0.87 0 0  0.88 0 0  0.89 0 0  0.9 0 0  0.91 0 0  0.92 0 0  0.93 0 0  0.9399999999999999 0 0  0.95 0 0  0.96 0 0  0.97 0 0  0.98 0 0  0.99 0 0  1 0 0  0 0.01 0  0.01 0.01 0  0.02 0.01 0  0.03 0.01 0  0.04 0.01 0  0.05 0.01 0  0.06 0.01 0  0.07000000000000001 0.01 0  0.08 0.01 0  0.09 0.01 0  0.1 0.01 0  0.11 0.01 0  0.12 0.01 0  0.13 0.01 0  0.14 0.01 0  0.15 0.01 0  0.16 0.01 0  0.17 0.01 0  0.18 0.01 0  0.19 0.01 0  0.2 0.01 0  0.21 0.01 0  0.22 0.01 0  0.23 0.01 0  0.24 0.01 0  0.25 0.01 0  0.26 0.01 0  0.27 0.01 0  0.28 0.01 0  0.29 0.01 0  0.3 0.01 0  0.31 0.01 0  0.32 0.01 0  0.33 0.01 0  0.34 0.01 0  0.35 0.01 0  0.36 0.01 0  0.37 0.01 0  0.38 0.01 0  0.39 0.01 0  0.4 0.01 0  0.41 0.01 0  0.42 0.01 0  0.43 0.01 0  0.44 0.01 0  0.45 0.01 0  0.46 0.01 0  0.47 0.01 0  0.48 0.01 0  0.49 0.01 0  0.5 0.01 0  0.51 0.01 0  0.52 0.01 0  0.53 0.01 0  0.54 0.01 0  0.55 0.01 0  0.5600000000000001 0.01 0  0.57 0.01 0  0.58 0.01 0  0.59 0.01 0  0.6 0.01 0  0.61 0.01 0  0.62 0.01 0  0.63 0.01 0  0.64 0.01 0  0.65 0.01 0  0.66 0.01 0  0.67 0.01 0  0.68 0.01 0  0.6899999999999999 0.01 0  0.7 0.01 0  0.71 0.01 0  0.72 0.01 0  0.73 0.01 0  0.74 0.01 0  0.75 0.01 0  0.76 0.01 0  0.77 0.01 0  0.78 0.01 0  0.79 0.01 0  0.8 0.01 0  0.8100000000000001 0.01 0  0.82 0.01 0  0.83 0.01 0  0.84 0.01 0  0.85 0.01 0  0.86 0.01 0  0.87 0.01 0  0.88 0.01 0  0.89 0.01 0  0.9 0.01 0  0.91 0.01 0  0.92 0.01 0  0.93 0.01 0  0.9399999999999999 0.01 0  0.95 0.01 0  0.96 0.01 0  0.97 0.01 0  0.98 0.01 0  0.99 0.01 0  1 0.01 0  0 0.02 0  0.01 0.02 0  0.02 0.02 0  0.03 0.02 0  0.04 0.02 0  0.05 0.02 0  0.06 0.02 0  0.07000000000000001 0.02 0  0.08 0.02 0  0.09 0.02 0  0.1 0.02 0  0.11 0.02 0  0.12 0.02 0  0.13 0.02 0  0.14 0.02 0  0.15 0.02 0  0.16 0.02 0  0.17 0.02 0  0.18 0.02 0  0.19 0.02 0  0.2 0.02 0  0.21 0.02 0  0.22 0.02 0  0.23 0.02 0  0.24 0.02 0  0.25 0.02 0  0.26 0.02 0  0.27 0.02 0  0.28 0.02 0  0.29 0.02 0  0.3 0.02 0  0.31 0.02 0  0.32 0.02 0  0.33 0.02 0  0.34 0.02 0  0.35 0.02 0  0.36 0.02 0  0.37 0.02 0  0.38 0.02 0  0.39 0.02 0  0.4 0.02 0  0.41 0.02 0  0.42 0.02 0  0.43 0.02 0  0.44 0.02 0  0.45 0.02 0  0.46 0.02 0  0.47 0.02 0  0.48 0.02 0  0.49 0.02 0  0.5 0.02 0  0.51 0.02 0  0.52 0.02 0  0.53 0.02 0  0.54 0.02 0  0.55 0.02 0  0.5600000000000001 0.02 0  0.57 0.02 0  0.58 0.02 0  0.59 0.02 0  0.6 0.02 0  0.61 0.02 0  0.62 0.02 0  0.63 0.02 0  0.64 0.02 0  0.65 0.02 0  0.66 0.02 0  0.67 0.02 0  0.68 0.02 0  0.6899999999999999 0.02 0  0.7 0.02 0  0.71 0.02 0  0.72 0.02 0  0.73 0.02 0  0.74 0.02 0  0.75 0.02 0  0.76 0.02 0  0.77 0.02 0  0.78 0.02 0  0.79 0.02 0  0.8 0.02 0  0.8100000000000001 0.02 0  0.82 0.02 0  0.83 0.02 0  0.84 0.02 0  0.85 0.02 0  0.86 0.02 0  0.87 0.02 0  0.88 0.02 0  0.89 0.02 0  0.9 0.02 0  0.91 0.02 0  0.92 0.02 0  0.93 0.02 0  0.9399999999999999 0.02 0  0.95 0.02 0  0.96 0.02 0  0.97 0.02 0  0.98 0.02 0  0.99 0.02 0  1 0.02 0  0 0.03 0  0.01 0.03 0  0.02 0.03 0  0.03 0.03 0  0.04 0.03 0  0.05 0.03 0  0.06 0.03 0  0.07000000000000001 0.03 0  0.08 0.03 0  0.09 0.03 0  0.1 0.03 0  0.11 0.03 0  0.12 0.03 0  0.13 0.03 0  0.14 0.03 0  0.15 0.03 0  0.16 0.03 0  0.17 0.03 0  0.18 0.03 0  0.19 0.03 0  0.2 0.03 0  0.21 0.03 0  0.22 0.03 0  0.23 0.03 0  0.24 0.03 0  0.25 0.03 0  0.26 0.03 0  0.27 0.03 0  0.28 0.03 0  0.29 0.03 0  0.3 0.03 0  0.31 0.03 0  0.32 0.03 0  0.33 0.03 0  0.34 0.03 0  0.35 0.03 0  0.36 0.03 0  0.37 0.03 0  0.38 0.03 0  0.39 0.03 0  0.4 0.03 0  0.41 0.03 0  0.42 0.03 0  0.43 0.03 0  0.44 0.03 0  0.45 0.03 0  0.46 0.03 0  0.47 0.03 0  0.48 0.03 0  0.49 0.03 0  0.5 0.03 0  0.51 0.03 0  0.52 0.03 0  0.53 0.03 0  0.54 0.03 0  0.55 0.03 0  0.5600000000000001 0.03 0  0.57 0.03 0  0.58 0.03 0  0.59 0.03 0  0.6 0.03 0  0.61 0.03 0  0.62 0.03 0  0.63 0.03 0  0.64 0.03 0  0.65 0.03 0  0.66 0.03 0  0.67 0.03 0  0.68 0.03 0  0.6899999999999999 0.03 0  0.7 0.03 0  0.71 0.03 0  0.72 0.03 0  0.73 0.03 0  0.74 0.03 0  0.75 0.03 0  0.76 0.03 0  0.77 0.03 0  0.78 0.03 0  0.79 0.03 0  0.8 0.03 0  0.8100000000000001 0.03 0  0.82 0.03 0  0.83 0.03 0  0.84 0.03 0  0.85 0.03 0  0.86 0.03 0  0.87 0.03 0  0.88 0.03 0  0.89 0.03 0  0.9 0.03 0  0.91 0.03 0  0.92 0.03 0  0.93 0.03 0  0.9399999999999999 0.03 0  0.95 0.03 0  0.96 0.03 0  0.97 0.03 0  0.98 0.03 0  0.99 0.03 0  1 0.03 0  0 0.04 0  0.01 0.04 0  0.02 0.04 0  0.03 0.04 0  0.04 0.04 0  0.05 0.04 0  0.06 0.04 0  0.07000000000000001 0.04 0  0.08 0.04 0  0.09 0.04 0  0.1 0.04 0  0.11 0.04 0  0.12 0.04 0  0.13 0.04 0  0.14 0.04 0  0.15 0.04 0  0.16 0.04 0  0.17 0.04 0  0.18 0.04 0  0.19 0.04 0  0.2 0.04 0  0.21 0.04 0  0.22 0.04 0  0.23 0.04 0  0.24 0.04 0  0.25 0.04 0  0.26 0.04 0  0.27 0.04 0  0.28 0.04 0  0.29 0.04 0  0.3 0.04 0  0.31 0.04 0  0.32 0.04 0  0.33 0.04 0  0.34 0.04 0  0.35 0.04 0  0.36 0.04 0  0.37 0.04 0  0.38 0.04 0  0.39 0.04 0  0.4 0.04 0  0.41 0.04 0  0.42 0.04 0  0.43 0.04 0  0.44 0.04 0  0.45 0.04 0  0.46 0.04 0  0.47 0.04 0  0.48 0.04 0  0.49 0.04 0  0.5 0.04 0  0.51 0.04 0  0.52 0.04 0  0.53 0.04 0  0.54 0.04 0  0.55 0.04 0  0.5600000000000001 0.04 0  0.57 0.04 0  0.58 0.04 0  0.59 0.04 0  0.6 0.04 0  0.61 0.04 0  0.62 0.04 0  0.63 0.04 0  0.64 0.04 0  0.65 0.04 0  0.66 0.04 0  0.67 0.04 0  0.68 0.04 0  0.6899999999999999 0.04 0  0.7 0.04 0  0.71 0.04 0  0.72 0.04 0  0.73 0.04 0  0.74 0.04 0  0.75 0.04 0  0.76 0.04 0  0.77 0.04 0  0.78 0.04 0  0.79 0.04 0  0.8 0.04 0  0.8100000000000001 0.04 0  0.82 0.04 0  0.83 0.04 0  0.84 0.04 0  0.85 0.04 0  0.86 0.04 0  0.87 0.04 0  0.88 0.04 0  0.89 0.04 0  0.9 0.04 0  0.91 0.04 0  0.92 0.04 0  0.93 0.04 0  0.9399999999999999 0.04 0  0.95 0.04 0  0.96 0.04 0  0.97 0.04 0  0.98 0.04 0  0.99 0.04 0  1 0.04 0  0 0.05 0  0.01 0.05 0  0.02 0.05 0  0.03 0.05 0  0.04 0.05 0  0.05 0.05 0  0.06 0.05 0  0.07000000000000001 0.05 0  0.08 0.05 0  0.09 0.05 0  0.1 0.05 0  0.11 0.05 0  0.12 0.05 0  0.13 0.05 0  0.14 0.05 0  0.15 0.05 0  0.16 0.05 0  0.17 0.05 0  0.18 0.05 0  0.19 0.05 0  0.2 0.05 0  0.21 0.05 0  0.22 0.05 0  0.23 0.05 0  0.24 0.05 0  0.25 0.05 0  0.26 0.05 0  0.27 0.05 0  0.28 0.05 0  0.29 0.05 0  0.3 0.05 0  0.31 0.05 0  0.32 0.05 0  0.33 0.05 0  0.34 0.05 0  0.35 0.05 0  0.36 0.05 0  0.37 0.05 0  0.38 0.05 0  0.39 0.05 0  0.4 0.05 0  0.41 0.05 0  0.42 0.05 0  0.43 0.05 0  0.44 0.05 0  0.45 0.05 0  0.46 0.05 0  0.47 0.05 0  0.48 0.05 0  0.49 0.05 0  0.5 0.05 0  0.51 0.05 0  0.52 0.05 0  0.53 0.05 0  0.54 0.05 0  0.55 0.05 0  0.5600000000000001 0.05 0  0.57 0.05 0  0.58 0.05 0  0.59 0.05 0  0.6 0.05 0  0.61 0.05 0  0.62 0.05 0  0.63 0.05 0  0.64 0.05 0  0.65 0.05 0  0.66 0.05 0  0.67 0.05 0  0.68 0.05 0  0.6899999999999999 0.05 0  0.7 0.05 0  0.71 0.05 0  0.72 0.05 0  0.73 0.05 0  0.74 0.05 0  0.75 0.05 0  0.76 0.05 0  0.77 0.05 0  0.78 0.05 0  0.79 0.05 0  0.8 0.05 0  0.8100000000000001 0.05 0  0.82 0.05 0  0.83 0.05 0  0.84 0.05 0  0.85 0.05 0  0.86 0.05 0  0.87 0.05 0  0.88 0.05 0  0.89 0.05 0  0.9 0.05 0  0.91 0.05 0  0.92 0.05 0  0.93 0.05 0  0.9399999999999999 0.05 0  0.95 0.05 0  0.96 0.05 0  0.97 0.05 0  0.98 0.05 0  0.99 0.05 0  1 0.05 0  0 0.06 0  0.01 0.06 0  0.02 0.06 0  0.03 0.06 0  0.04 0.06 0  0.05 0.06 0  0.06 0.06 0  0.07000000000000001 0.06 0  0.08 0.06 0  0.09 0.06 0  0.1 0.06 0  0.11 0.06 0  0.12 0.06 0  0.13 0.06 0  0.14 0.06 0  0.15 0.06 0  0.16 0.06 0  0.17 0.06 0  0.18 0.06 0  0.19 0.06 0  0.2 0.06 0  0.21 0.06 0  0.22 0.06 0  0.23 0.06 0  0.24 0.06 0  0.25 0.06 0  0.26 0.06 0  0.27 0.06 0  0.28 0.06 0  0.29 0.06 0  0.3 0.06 0  0.31 0.06 0  0.32 0.06 0  0.33 0.06 0  0.34 0.06 0  0.35 0.06 0  0.36 0.06 0  0.37 0.06 0  0.38 0.06 0  0.39 0.06 0  0.4 0.06 0  0.41 0.06 0  0.42 0.06 0  0.43 0.06 0  0.44 0.06 0  0.45 0.06 0  0.46 0.06 0  0.47 0.06 0  0.48 0.06 0  0.49 0.06 0  0.5 0.06 0  0.51 0.06 0  0.52 0.06 0  0.53 0.06 0  0.54 0.06 0  0.55 0.06 0  0.5600000000000001 0.06 0  0.57 0.06 0  0.58 0.06 0  0.59 0.06 0  0.6 0.06 0  0.61 0.06 0  0.62 0.06 0  0.63 0.06 0  0.64 0.06 0  0.65 0.06 0  0.66 0.06 0  0.67 0.06 0  0.68 0.06 0  0.6899999999999999 0.06 0  0.7 0.06 0  0.71 0.06 0  0.72 0.06 0  0.73 0.06 0  0.74 0.06 0  0.75 0.06 0  0.76 0.06 0  0.77 0.06 0  0.78 0.06 0  0.79 0.06 0  0.8 0.06 0  0.8100000000000001 0.06 0  0.82 0.06 0  0.83 0.06 0  0.84 0.06 0  0.85 0.06 0  0.86 0.06 0  0.87 0.06 0  0.88 0.06 0  0.89 0.06 0  0.9 0.06 0  0.91 0.06 0  0.92 0.06 0  0.93 0.06 0  0.9399999999999999 0.06 0  0.95 0.06 0  0.96 0.06 0  0.97 0.06 0  0.98 0.06 0  0.99 0.06 0  1 0.06 0  0 0.07000000000000001 0  0.01 0.07000000000000001 0  0.02 0.07000000000000001 0  0.03 0.07000000000000001 0  0.04 0.07000000000000001 0  0.05 0.07000000000000001 0  0.06 0.07000000000000001 0  0.07000000000000001 0.07000000000000001 0  0.08 0.07000000000000001 0  0.09 0.07000000000000001 0  0.1 0.07000000000000001 0  0.11 0.07000000000000001 0  0.12 0.07000000000000001 0  0.13 0.07000000000000001 0  0.14 0.07000000000000001 0  0.15 0.07000000000000001 0  0.16 0.07000000000000001 0  0.17 0.0700
[...]
<PointData  Scalars="f_17"> 
<DataArray  type="Float64"  Name="f_17"  format="ascii">0.0000000000000000e+00  5.0000000000000000e+01  5.0000000000000000e+01  5.0000000000000000e+01  5.0000000000000000e+01  5.0000000000000000e+01  5.0000000000000000e+01  5.0000000000000000e+01  5.0000000000000000e+01  5.0000000000000000e+01  5.0000000000000000e+01  5.0000000000000000e+01  5.0000000000000000e+01  5.0000000000000000e+01  5.0000000000000000e+01  5.0000000000000000e+01  5.0000000000000000e+01  5.0000000000000000e+01  5.0000000000000000e+01  5.0000000000000000e+01  5.0000000000000000e+01  5.0000000000000000e+01  5.0000000000000000e+01  5.0000000000000000e+01  5.0000000000000000e+01  5.0000000000000000e+01  5.0000000000000000e+01  5.0000000000000000e+01  5.0000000000000000e+01  5.0000000000000000e+01  5.0000000000000000e+01  5.0000000000000000e+01  5.0000000000000000e+01  5.0000000000000000e+01  5.0000000000000000e+01  5.0000000000000000e+01  5.0000000000000000e+01  5.0000000000000000e+01  5.0000000000000000e+01  5.0000000000000000e+01  5.0000000000000000e+01  5.0000000000000000e+01  5.0000000000000000e+01  5.0000000000000000e+01  5.0000000000000000e+01  5.0000000000000000e+01  5.0000000000000000e+01  5.0000000000000000e+01  5.0000000000000000e+01  5.0000000000000000e+01  5.0000000000000000e+01  5.0000000000000000e+01  5.0000000000000000e+01  5.0000000000000000e+01  5.0000000000000000e+01  5.0000000000000000e+01  5.0000000000000000e+01  5.0000000000000000e+01  5.0000000000000000e+01  5.0000000000000000e+01  5.0000000000000000e+01  5.0000000000000000e+01  5.0000000000000000e+01  5.0000000000000000e+01  5.0000000000000000e+01  5.0000000000000000e+01  5.0000000000000000e+01  5.0000000000000000e+01  5.0000000000000000e+01  5.0000000000000000e+01  5.0000000000000000e+01  5.0000000000000000e+01  5.0000000000000000e+01  5.0000000000000000e+01  5.0000000000000000e+01  5.0000000000000000e+01  5.0000000000000000e+01  5.0000000000000000e+01  5.0000000000000000e+01  5.0000000000000000e+01  5.0000000000000000e+01  5.0000000000000000e+01  5.0000000000000000e+01  5.0000000000000000e+01  5.0000000000000000e+01  5.0000000000000000e+01  5.0000000000000000e+01  5.0000000000000000e+01  5.0000000000000000e+01  5.0000000000000000e+01  5.0000000000000000e+01  5.0000000000000000e+01  5.0000000000000000e+01  5.0000000000000000e+01  5.0000000000000000e+01  5.0000000000000000e+01  5.0000000000000000e+01  5.0000000000000000e+01  5.0000000000000000e+01  5.0000000000000000e+01  0.0000000000000000e+00  0.0000000000000000e+00  2.4926436448049849e+01  3.5106682563607663e+01  3.9540358339920317e+01  4.1910068405837144e+01  4.3352524734589267e+01  4.4307867981295395e+01  4.4977933942152767e+01  4.5467412840824608e+01  4.5835796307709906e+01  4.6119329648315706e+01  4.6341335892311463e+01  4.6517496680267875e+01  4.6658741836653704e+01  4.6772920176400191e+01  4.6865811088691750e+01  4.6941761346230592e+01  4.7004099647974094e+01  4.7055414461426665e+01  4.7097745089851124e+01  4.7132716105406892e+01  4.7161633898560346e+01  4.7185557321601053e+01  4.7205350260720621e+01  4.7221721370756349e+01  4.7235254536965677e+01  4.7246432533715343e+01  4.7255655619056249e+01  4.7263256307722642e+01  4.7269511222688621e+01  4.7274650685895018e+01  4.7278866539021337e+01  4.7282318563434892e+01  4.7285139780131090e+01  4.7287440845718066e+01  4.7289313712507109e+01  4.7290834684841819e+01  4.7292066976615097e+01  4.7293062854142761e+01  4.7293865432496631e+01  4.7294510180842977e+01  4.7295026182395354e+01  4.7295437186632689e+01  4.7295762484974958e+01  4.7296017635797803e+01  4.7296215060238048e+01  4.7296364526491828e+01  4.7296473537086918e+01  4.7296547630797463e+01  4.7296590608367673e+01  4.7296604688950680e+01  4.7296590602076527e+01  4.7296547617993703e+01  4.7296473517323626e+01  4.7296364499088718e+01  4.7296215024269515e+01  4.7296017590077319e+01  4.7295762428036277e+01  4.7295437116708136e+01  4.7295026097390775e+01  4.7294510078311518e+01  4.7293865309610844e+01  4.7293062707666401e+01  4.7292066802874928e+01  4.7290834479701722e+01  4.7289313471344727e+01  4.7287440563405866e+01  4.7285139451023340e+01  4.7282318181362179e+01  4.7278866097294390e+01  4.7274650177319486e+01  4.7269510639592163e+01  4.7263255641996608e+01  4.7255654862212722e+01  4.7246431676960384e+01  4.7235253571289775e+01  4.7221720287042267e+01  4.7205349049867564e+01  4.7185555974664659e+01  4.7161632406906186e+01  4.7132714460874610e+01  4.7097743284926558e+01  4.7055412489416248e+01  4.7004097503176958e+01  4.6941759024102552e+01  4.6865808585993896e+01  4.6772917491324861e+01  4.6658738968919650e+01  4.6517493631175654e+01  4.6341332664748982e+01  4.6119326246702300e+01  4.5835792737862711e+01  4.5467409109724457e+01  4.4977930057566923e+01  4.4307863951168436e+01  4.3352520565978651e+01  4.1910064102725237e+01  3.9540353897468627e+01  3.5106677947909532e+01  2.4926431500695571e+01  0.0000000000000000e+00  0.0000000000000000e+00  1.4599756514188021e+01  2.4707133548676541e+01  3.0846526317500903e+01  3.4659397997371002e+01  3.7162260309085241e+01  3.8890842871543271e+01  4.0134320015446406e+01  4.1057641096851924e+01  4.1760314602232995e+01  4.2305434941788505e+01  4.2734752545158088e+01  4.3076915123558187e+01  4.3352195807605284e+01  4.3575324015264869e+01  4.3757245302652223e+01  4.3906252226754617e+01  4.4028732613689975e+01  4.4129677736540479e+01  4.4213035586426635e+01  4.4281961682549088e+01  4.4339000577329600e+01  4.4386219523136667e+01  4.4425308500806970e+01  4.4457656188361923e+01  4.4484408446530011e+01  4.4506513910722262e+01  4.4524759940932739e+01  4.4539801265463176e+01  4.4552183018808613e+01  4.4562359426945285e+01  4.4570709074845936e+01  4.4577547461656764e+01  4.4583137381903597e+01  4.4587697548152988e+01  4.4591409779156294e+01  4.4594425008873756e+01  4.4596868319709870e+01  4.4598843163385709e+01  4.4600434901948596e+01  4.4601713777188245e+01  4.4602737397513920e+01  4.4603552815921915e+01  4.4604198260137821e+01  4.4604704565683342e+01  4.4605096353974879e+01  4.4605392990238030e+01  4.4605609349715010e+01  4.4605756415126201e+01  4.4605841723436924e+01  4.4605869675531977e+01  4.4605841718286229e+01  4.4605756404635748e+01  4.4605609333502919e+01  4.4605392967722665e+01  4.4605096324363601e+01  4.4604704527958461e+01  4.4604198213039290e+01  4.4603552757927247e+01  4.4602737326815316e+01  4.4601713691668046e+01  4.4600434799153724e+01  4.4598843040500945e+01  4.4596868173531590e+01  4.4594424835785162e+01  4.4591409575105125e+01  4.4587697308632940e+01  4.4583137101940949e+01  4.4577547135803691e+01  4.4570708697182432e+01  4.4562358991090996e+01  4.4552182517945440e+01  4.4539800692371379e+01  4.4524759288041189e+01  4.4506513170172958e+01  4.4484407610258138e+01  4.4457655248191394e+01  4.4425307448560567e+01  4.4386218350758945e+01  4.4338999277021436e+01  4.4281960246909584e+01  4.4213034008599728e+01  4.4129676010359994e+01  4.4028730733818186e+01  4.3906250188807029e+01  4.3757243103301278e+01  4.3575321652313136e+01  4.3352193280018561e+01  4.3076912431447425e+01  4.2734749689696457e+01  4.2305431925047316e+01  4.1760311426913063e+01  4.1057637765877246e+01  4.0134316531361485e+01  3.8890839235607103e+01  3.7162256519846281e+01  3.4659394048284440e+01  3.0846522192889847e+01  2.4707129219310129e+01  1.4599751963078623e+01  0.0000000000000000e+00  0.0000000000000000e+00  1.0021034027140049e+01  1.8278335961165979e+01  2.4346233052868268e+01  2.8647741205080045e+01  3.1715330235120703e+01  3.3947938011467528e+01  3.5610046300455899e+01  3.6873354847836723e+01  3.7850721612395937e+01  3.8618082270541272e+01  3.9227871163244856e+01  3.9717218498793876e+01  4.0113035804681672e+01  4.0435241157343349e+01  4.0698853745852439e+01  4.0915386373583864e+01  4.1093792085623399e+01  4.1241121270044594e+01  4.1362986737236746e+01  4.1463898888955626e+01  4.1547511352564115e+01  4.1616803830818732e+01  4.1674220208044922e+01  4.1721774282484184e+01  4.1761131737640831e+01  4.1793674436216001e+01  4.1820551391878830e+01  4.1842719576619132e+01  4.1860976880992730e+01  4.1875988947647159e+01  4.1888311169782767e+01  4.1898406835012018e+01  4.1906662166920384e+01  4.1913398847714411e+01  4.1918884479081527e+01  4.1923341343097064e+01  4.1926953752392265e+01  4.1929874222887506e+01  4.1932228658893102e+01  4.1934120706156058e+01  4.1935635401187191e+01  4.1936842223253066e+01  4.1937797637500296e+01  4.1938547202864214e+01  4.1939127305987569e+01  4.1939566571807404e+01  4.1939886992340497e+01  4.1940104807193428e+01  4.1940231162178428e+01  4.1940272565930655e+01  4.1940231158412331e+01  4.1940104799508198e+01  4.1939886980426571e+01  4.1939566555192002e+01  4.1939127284024558e+01  4.1938547174720597e+01  4.1937797602140023e+01  4.1936842179417823e+01  4.1935635347374827e+01  4.1934120640596838e+01  4.1932228579524612e+01  4.1929874127328482e+01  4.1926953637916469e+01  4.1923341206607780e+01  4.1918884317088391e+01  4.1913398656312964e+01  4.1906661941776164e+01  4.1898406571350677e+01  4.1888310862387698e+01  4.1875988590865980e+01  4.1860976468754359e+01  4.1842719102462667e+01  4.1820550848995566e+01  4.1793673817505315e+01  4.1761131035780515e+01  4.1721773490014961e+01  4.1674219317468562e+01  4.1616802834708132e+01  4.1547510243683405e+01  4.1463897660386067e+01  4.1362985382505379e+01  4.1241119783249133e+01  4.1093790461547393e+01  4.0915384607794465e+01  4.0698851834772285e+01  4.0435239098285862e+01  4.0113033595839461e+01  3.9717216139166617e+01  3.9227868652491317e+01  3.8618079608737240e+01  3.7850718799673487e+01  3.6873351883871059e+01  3.5610043183751557e+01  3.3947934738373498e+01  3.1715326798486366e+01  2.8647737592527484e+01  2.4346229245137401e+01  1.8278331932885919e+01  1.0021029752306902e+01  0.0000000000000000e+00  0.0000000000000000e+00  7.5083324151516990e+00  1.4180159736442320e+01  1.9618454188054073e+01  2.3850477097358016e+01  2.7090537252608886e+01  2.9572424924449287e+01  3.1488965311795727e+01  3.2984728559611980e+01  3.4164721962909823e+01  3.5104848405674694e+01  3.5860364748642851e+01  3.6471993738562908e+01  3.6970173265247560e+01  3.7377982034896561e+01  3.7713160563259436e+01  3.7989520513160947e+01  3.8217939729248627e+01  3.8407074387906313e+01  3.8563875854325794e+01  3.8693971036934371e+01  3.8801946094413850e+01  3.8891560823922219e+01  3.8965912694598785e+01  3.9027563844665096e+01  3.9078640506248071e+01  3.9120911660717645e+01  3.9155851868974615e+01  3.9184691909376646e+01  3.9208459920437704e+01  3.9228015071569324e+01  3.9244075295139332e+01  3.9257240253577486e+01  3.9268010449085033e+01  3.9276803184724855e+01  3.9283965935911304e+01  3.9289787577481441e+01  3.9294507824188507e+01  3.9298325174792858e+01  3.9301403596965081e+01  3.9303878148306488e+01  3.9305859695252146e+01  3.9307438864446524e+01  3.9308689338890190e+01  3.9309670592624570e+01  3.9310430142107272e+01  3.9311005379088314e+01  3.9311425038222843e+01  3.9311710342466831e+01  3.9311875860174482e+01  3.9311930099503250e+01  3.9311875858012407e+01  3.9311710338028732e+01  3.9311425031277395e+01  3.9311005369280430e+01  3.9310430128948255e+01  3.9309670575479188e+01  3.9308689316960880e+01  3.9307438836754280e+01  3.9305859660615198e+01  3.9303878105316535e+01  3.9301403543961364e+01  3.9298325109835268e+01  3.9294507745029556e+01  3.9289787481539094e+01  3.9283965820242116e+01  3.9276803046000289e+01  3.9268010283570661e+01  3.9257240057117890e+01  3.9244075063149438e+01  3.9228014799033964e+01  3.9208459601920744e+01  3.9184691539042227e+01  3.9155851440620076e+01  3.9120911167820552e+01  3.9078639942027564e+01  3.9027563202157133e+01  3.8965911966745061e+01  3.8891560003671259e+01  3.8801945174831737e+01  3.8693970011321575e+01  3.8563874716335860e+01  3.8407073131660148e+01  3.8217938349437610e+01  3.7989519005130703e+01  3.7713158923064569e+01  3.7377980259315031e+01  3.6970171351743382e+01  3.6471991685182523e+01  3.5860362553829482e+01  3.5104846067982244e+01  3.4164719480594755e+01  3.2984725930076458e+01  3.1488962530851659e+01  2.9572421985374973e+01  2.7090534144994844e+01  2.3850473805836966e+01  1.9618450691233296e+01  1.4180156006415990e+01  7.5083284162802677e+00  0.0000000000000000e+00  0.0000000000000000e+00  5.9255781998824002e+00  1.1397367073923853e+01  1.6132623066410151e+01  2.0055820129828675e+01  2.3228985483177645e+01  2.5769600796459407e+01  2.7800211186119938e+01  2.9427590100436248e+01  3.0737976896835367e+01  3.1798777998083022e+01  3.2662052363904877e+01  3.3367954615045754e+01  3.3947589598447649e+01  3.4425221553017543e+01  3.4819934244737830e+01  3.5146864792177865e+01  3.5418119250727415e+01  3.5643454564095009e+01  3.5830789895881281e+01  3.5986593233177004e+01  3.6116176391074482e+01  3.6223922296156545e+01  3.6313461803571258e+01  3.6387812578218849e+01  3.6449489198223120e+01  3.6500591222725383e+01  3.6542874225968397e+01  3.6577807538791795e+01  3.6606621519033979e+01  3.6630346496990455e+01  3.6649845042669398e+01  3.6665838829666484e+01  3.6678931091517462e+01  3.6689625455601650e+01  3.6698341779175912e+01  3.6705429488933575e+01  3.6711178830119628e+01  3.6715830356727899e+01  3.6719582935523121e+01  3.6722600489759934e+01  3.6725017670676515e+01  3.6726944614002932e+01  3.6728470913248550e+01  3.6729668920213840e+01  3.6730596465091892e+01  3.6731299072981180e+01  3.6731811740072160e+01  3.6732160320767598e+01  3.6732362566200180e+01  3.6732428844733484e+01  3.6732362565833270e+01  3.6732160319961217e+01  3.6731811738678076e+01  3.6731299070768948e+01  3.6730596461739047e+01  3.6729668915293239e+01  3.6728470906211996e+01  3.6726944604162085e+01  3.6725017657180686e+01  3.6722600471571091e+01  3.6719582911388443e+01  3.6715830325150506e+01  3.6711178789327661e+01  3.6705429436848789e+01  3.6698341713382597e+01  3.6689625373316943e+01  3.6678930989564357e+01  3.6665838704451374e+01  3.6649844890165312e+01  3.6630346312728072e+01  3.6606621298102034e+01  3.6577807275848592e+01  3.6542873915265979e+01  3.6500590858147817e+01  3.6449488773339397e+01  3.6387812086350870e+01  3.6313461237876510e+01  3.6223921649724105e+01  3.6116175657031818e+01  3.5986592404804334e+01  3.5830788966728470e+01  3.5643453528095144e+01  3.5418118102299388e+01  3.5146863526309225e+01  3.4819932857037465e+01  3.4425220039726852e+01  3.3947587956397093e+01  3.3367952841542788e+01  3.2662050456537671e+01  3.1798775954423114e+01  3.0737974714021703e+01  2.9427587774622125e+01  2.7800208711767503e+01  2.5769598165476456e+01  2.3228982683915163e+01  2.0055817146002138e+01  1.6132619876025032e+01  1.1397363648106801e+01  5.9255745009497298e+00  0.0000000000000000e+00  0.0000000000000000e+00  4.8332308521250518e+00  9.3954256933632649e+00  1.3491590579421098e+01  1.7032351629059196e+01  2.0016136446288957e+01  2.2492955849209189e+01  2.4533305589340458e+01  2.6209336646430728e+01  2.7586098960086122e+01  2.8718747071213105e+01  2.9652620968882147e+01  3.0424445839347467e+01  3.1063799443144497e+01  3.1594490367292735e+01  3.2035729006005383e+01  3.2403076771205008e+01  3.2709198012696746e+01  3.2964449444334370e+01  3.3177340665464065e+01  3.3354894327846075e+01  3.3502928847569862e+01  3.3626281496044697e+01  3.3728985550395890e+01  3.3814411922683249e+01  3.3885383185387695e+01  3.3944266013927447e+01  3.3993046637415546e+01  3.4033392813519420e+01  3.4066705033998012e+01  3.4094159057181812e+01  3.4116741401937460e+01  3.4135279086934268e+01  3.4150464631353316e+01  3.4162877127781698e+01  3.4173000039457833e+01  3.4181236250773949e+01  3.4187920803398178e+01  3.4193331674125197e+01  3.4197698889772234e+01  3.4201212225483907e+01  3.4204027692953893e+01  3.4206272992251293e+01  3.4208052073583985e+01  3.4209448932237891e+01  3.4210530740190556e+01  3.4211350400790543e+01  3.4211948597867782e+01  3.4212355397249510e+01  3.4212591446542731e+01  3.4212668807907271e+01  3.4212591448130489e+01  3.4212355400395879e+01  3.4211948602511065e+01  3.4211350406830213e+01  3.4210530747477030e+01  3.4209448940559369e+01  3.4208052082649580e+01  3.4206273001671029e+01  3.4204027702214816e+01  3.4201212233923279e+01  3.4197698896547159e+01  3.4193331678180158e+01  3.4187920803429655e+01  3.4181236245193723e+01  3.4173000026355744e+01  3.4162877104888679e+01  3.4150464596006564e+01  3.4135279036045617e+01  3.4116741331967205e+01  3.4094158964119885e+01  3.4066704913354165e+01  3.4033392660324786e+01  3.3993046446237528e+01  3.3944265778899386e+01  3.3885382900254584e+01  3.3814411580864302e+01  3.3728985145063731e+01  3.3626281020220091e+01  3.3502928294229861e+01  3.3354893690042189e+01  3.3177339936445421e+01  3.2964448617669767e+01  3.2709197082387810e+01  3.2403075731780632e+01  3.2035727852587208e+01  3.1594489095619419e+01  3.1063798049541308e+01  3.0424444320627298e+01  2.9652619322163172e+01  2.8718745293638275e+01  2.7586097048430407e+01  2.6209334596584373e+01  2.4533303395661715e+01  2.2492953503749433e+01  2.0016133937907675e+01  1.7032348942457514e+01  1.3491587694105315e+01  9.3954225824723725e+00  4.8332274809527158e+00  0.0000000000000000e+00  0.0000000000000000e+00  4.0300085220569919e+00  7.8862664675760072e+00  1.1432526089257149e+01  1.4589435548380083e+01  1.7332161848780512e+01  1.9675226172490468e+01  2.1655304564046048e+01  2.3317915374981954e+01  2.4709187869775480e+01  2.5871655775966559e+01  2.6842601977101459e+01  2.7653795827007325e+01  2.8331888948066457e+01  2.8899059683564179e+01  2.9373699502510735e+01  2.9771048731368740e+01  3.0103748211617031e+01  3.0382301943319575e+01  3.0615458038792188e+01  3.0810519507432538e+01  3.0973596832277149e+01  3.1109813171019919e+01  3.1223471382875530e+01  3.1318190432260891e+01  3.1397017246755208e+01  3.1462518868311992e+01  3.1516858729752727e+01  3.1561860085551434e+01  3.1599058992767013e+01  3.1629748741946081e+01  3.1655017250419899e+01  3.1675778628082053e+01  3.1692799889547565e+01  3.1706723601605731e+01  3.1718087109442514e+01  3.1727338870178286e+01  3.1734852330879811e+01  3.1740937714993937e+01  3.1745852022004851e+01  3.1749807496874233e+01  3.1752978786070091e+01  3.1755508963862091e+01  3.1757514584637857e+01  3.1759089893167872e+01  3.1760310304169021e+01  3.1761235244513962e+01  3.1761910435483021e+01  3.1762369678125147e+01  3.1762636191744413e+01  3.1762723543455476e+01  3.1762636195412480e+01  3.1762369685476756e+01  3.1761910446545702e+01  3.1761235259320468e+01  3.1760310322746889e+01  3.1759089915525511e+01  3.1757514610746536e+01  3.1755508993634361e+01  3.1752978819333997e+01  3.1749807533343503e+01  3.1745852061245280e+01  3.1740937756386153e+01  3.1734852373578676e+01  3.1727338913069783e+01  3.1718087151098945e+01  3.1706723640240345e+01  3.1692799922970217e+01  3.1675778653657602e+01  3.1655017265031095e+01  3.1629748741963905e+01  3.1599058974029759e+01  3.1561860043356088e+01  3.1516858658859984e+01  3.1462518762968145e+01  3.1397017100731524e+01  3.1318190238912496e+01  3.1223471135219668e+01  3.1109812861833152e+01  3.0973596454209407e+01  3.0810519053134790e+01  3.0615457501053175e+01  3.0382301315204689e+01  3.0103747486601680e+01  2.9771047903456218e+01  2.9373698566323448e+01  2.8899058634395860e+01  2.8331887781881630e+01  2.7653794540374065e+01  2.6842600567043771e+01  2.5871654239722872e+01  2.4709186204452138e+01  2.3317913577094053e+01  2.1655302628943694e+01  1.9675224093676011e+01  1.7332159617131811e+01  1.4589433151299076e+01  1.1432523509758344e+01  7.8862636833211210e+00  4.0300055043448983e+00  0.0000000000000000e+00  0.0000000000000000e+00  3.4117220592296174e+00  6.7059397603691782e+00  9.7852234094553356e+00  1.2584482019004589e+01  1.5072745902394759e+01  1.7247184422430870e+01  1.9124066050310812e+01  2.0730265486678011e+01  2.2096921447655355e+01  2.3255396672624027e+01  2.4235051513140128e+01  2.5062231676234941e+01  2.5759980986158212e+01  2.6348143954599582e+01  2.6843651340053306e+01  2.7260870832969257e+01  2.7611960726641371e+01  2.7907197050637741e+01  2.8155262688904468e+01  2.8363496403993189e+01  2.8538104185967427e