<?xml version="1.0"?>
<VTKFile type="UnstructuredGrid"  version="0.1"  >
<UnstructuredGrid>
<Piece  NumberOfPoints="10201" NumberOfCells="20000">
<Points>
<DataArray  type="Float64"  NumberOfComponents="3"  format="ascii">0 0 0  0.01 0 0  0.02 0 0  0.03 0 0  0.04 0 0  0.05 0 0  0.06 0 0  0.07000000000000001 0 0  0.08 0 0  0.09 0 0  0.1 0 0  0.11 0 0  0.12 0 0  0.13 0 0  0.14 0 0  0.15 0 0  0.16 0 0  0.17 0 0  0.18 0 0  0.19 0 0  0.2 0 0  0.21 0 0  0.22 0 0  0.23 0 0  0.24 0 0  0.25 0 0  0.26 0 0  0.27 0 0  0.28 0 0  0.29 0 0  0.3 0 0  0.31 0 0  0.32 0 0  0.33 0 0  0.34 0 0  0.35 0 0  0.36 0 0  0.37 0 0  0.38 0 0  0.39 0 0  0.4 0 0  0.41 0 0  0.42 0 0  0.43 0 0  0.44 0 0  0.45 0 0  0.46 0 0  0.47 0 0  0.48 0 0  0.49 0 0  0.5 0 0  0.51 0 0  0.52 0 0  0.53 0 0  0.54 0 0  0.55 0 0  0.5600000000000001 0 0  0.57 0 0  0.58 0 0  0.59 0 0  0.6 0 0  0.61 0 0  0.62 0 0  0.63 0 0  0.64 0 0  0.65 0 0  0.66 0 0  0.67 0 0  0.68 0 0  0.6899999999999999 0 0  0.7 0 0  0.71 0 0  0.72 0 0  0.73 0 0  0.74 0 0  0.75 0 0  0.76 0 0  0.77 0 0  0.78 0 0  0.79 0 0  0.8 0 0  0.8100000000000001 0 0  0.82 0 0  0.83 0 0  0.84 0 0  0.85 0 0  0.86 0 0  0.87 0 0  0.88 0 0  0.89 0 0  0.9 0 0  0.91 0 0  0.92 0 0  0.93 0 0  0.9399999999999999 0 0  0.95 0 0  0.96 0 0  0.97 0 0  0.98 0 0  0.99 0 0  1 0 0  0 0.01 0  0.01 0.01 0  0.02 0.01 0  0.03 0.01 0  0.04 0.01 0  0.05 0.01 0  0.06 0.01 0  0.07000000000000001 0.01 0  0.08 0.01 0  0.09 0.01 0  0.1 0.01 0  0.11 0.01 0  0.12 0.01 0  0.13 0.01 0  0.14 0.01 0  0.15 0.01 0  0.16 0.01 0  0.17 0.01 0  0.18 0.01 0  0.19 0.01 0  0.2 0.01 0  0.21 0.01 0  0.22 0.01 0  0.23 0.01 0  0.24 0.01 0  0.25 0.01 0  0.26 0.01 0  0.27 0.01 0  0.28 0.01 0  0.29 0.01 0  0.3 0.01 0  0.31 0.01 0  0.32 0.01 0  0.33 0.01 0  0.34 0.01 0  0.35 0.01 0  0.36 0.01 0  0.37 0.01 0  0.38 0.01 0  0.39 0.01 0  0.4 0.01 0  0.41 0.01 0  0.42 0.01 0  0.43 0.01 0  0.44 0.01 0  0.45 0.01 0  0.46 0.01 0  0.47 0.01 0  0.48 0.01 0  0.49 0.01 0  0.5 0.01 0  0.51 0.01 0  0.52 0.01 0  0.53 0.01 0  0.54 0.01 0  0.55 0.01 0  0.5600000000000001 0.01 0  0.57 0.01 0  0.58 0.01 0  0.59 0.01 0  0.6 0.01 0  0.61 0.01 0  0.62 0.01 0  0.63 0.01 0  0.64 0.01 0  0.65 0.01 0  0.66 0.01 0  0.67 0.01 0  0.68 0.01 0  0.6899999999999999 0.01 0  0.7 0.01 0  0.71 0.01 0  0.72 0.01 0  0.73 0.01 0  0.74 0.01 0  0.75 0.01 0  0.76 0.01 0  0.77 0.01 0  0.78 0.01 0  0.79 0.01 0  0.8 0.01 0  0.8100000000000001 0.01 0  0.82 0.01 0  0.83 0.01 0  0.84 0.01 0  0.85 0.01 0  0.86 0.01 0  0.87 0.01 0  0.88 0.01 0  0.89 0.01 0  0.9 0.01 0  0.91 0.01 0  0.92 0.01 0  0.93 0.01 0  0.9399999999999999 0.01 0  0.95 0.01 0  0.96 0.01 0  0.97 0.01 0  0.98 0.01 0  0.99 0.01 0  1 0.01 0  0 0.02 0  0.01 0.02 0  0.02 0.02 0  0.03 0.02 0  0.04 0.02 0  0.05 0.02 0  0.06 0.02 0  0.07000000000000001 0.02 0  0.08 0.02 0  0.09 0.02 0  0.1 0.02 0  0.11 0.02 0  0.12 0.02 0  0.13 0.02 0  0.14 0.02 0  0.15 0.02 0  0.16 0.02 0  0.17 0.02 0  0.18 0.02 0  0.19 0.02 0  0.2 0.02 0  0.21 0.02 0  0.22 0.02 0  0.23 0.02 0  0.24 0.02 0  0.25 0.02 0  0.26 0.02 0  0.27 0.02 0  0.28 0.02 0  0.29 0.02 0  0.3 0.02 0  0.31 0.02 0  0.32 0.02 0  0.33 0.02 0  0.34 0.02 0  0.35 0.02 0  0.36 0.02 0  0.37 0.02 0  0.38 0.02 0  0.39 0.02 0  0.4 0.02 0  0.41 0.02 0  0.42 0.02 0  0.43 0.02 0  0.44 0.02 0  0.45 0.02 0  0.46 0.02 0  0.47 0.02 0  0.48 0.02 0  0.49 0.02 0  0.5 0.02 0  0.51 0.02 0  0.52 0.02 0  0.53 0.02 0  0.54 0.02 0  0.55 0.02 0  0.5600000000000001 0.02 0  0.57 0.02 0  0.58 0.02 0  0.59 0.02 0  0.6 0.02 0  0.61 0.02 0  0.62 0.02 0  0.63 0.02 0  0.64 0.02 0  0.65 0.02 0  0.66 0.02 0  0.67 0.02 0  0.68 0.02 0  0.6899999999999999 0.02 0  0.7 0.02 0  0.71 0.02 0  0.72 0.02 0  0.73 0.02 0  0.74 0.02 0  0.75 0.02 0  0.76 0.02 0  0.77 0.02 0  0.78 0.02 0  0.79 0.02 0  0.8 0.02 0  0.8100000000000001 0.02 0  0.82 0.02 0  0.83 0.02 0  0.84 0.02 0  0.85 0.02 0  0.86 0.02 0  0.87 0.02 0  0.88 0.02 0  0.89 0.02 0  0.9 0.02 0  0.91 0.02 0  0.92 0.02 0  0.93 0.02 0  0.9399999999999999 0.02 0  0.95 0.02 0  0.96 0.02 0  0.97 0.02 0  0.98 0.02 0  0.99 0.02 0  1 0.02 0  0 0.03 0  0.01 0.03 0  0.02 0.03 0  0.03 0.03 0  0.04 0.03 0  0.05 0.03 0  0.06 0.03 0  0.07000000000000001 0.03 0  0.08 0.03 0  0.09 0.03 0  0.1 0.03 0  0.11 0.03 0  0.12 0.03 0  0.13 0.03 0  0.14 0.03 0  0.15 0.03 0  0.16 0.03 0  0.17 0.03 0  0.18 0.03 0  0.19 0.03 0  0.2 0.03 0  0.21 0.03 0  0.22 0.03 0  0.23 0.03 0  0.24 0.03 0  0.25 0.03 0  0.26 0.03 0  0.27 0.03 0  0.28 0.03 0  0.29 0.03 0  0.3 0.03 0  0.31 0.03 0  0.32 0.03 0  0.33 0.03 0  0.34 0.03 0  0.35 0.03 0  0.36 0.03 0  0.37 0.03 0  0.38 0.03 0  0.39 0.03 0  0.4 0.03 0  0.41 0.03 0  0.42 0.03 0  0.43 0.03 0  0.44 0.03 0  0.45 0.03 0  0.46 0.03 0  0.47 0.03 0  0.48 0.03 0  0.49 0.03 0  0.5 0.03 0  0.51 0.03 0  0.52 0.03 0  0.53 0.03 0  0.54 0.03 0  0.55 0.03 0  0.5600000000000001 0.03 0  0.57 0.03 0  0.58 0.03 0  0.59 0.03 0  0.6 0.03 0  0.61 0.03 0  0.62 0.03 0  0.63 0.03 0  0.64 0.03 0  0.65 0.03 0  0.66 0.03 0  0.67 0.03 0  0.68 0.03 0  0.6899999999999999 0.03 0  0.7 0.03 0  0.71 0.03 0  0.72 0.03 0  0.73 0.03 0  0.74 0.03 0  0.75 0.03 0  0.76 0.03 0  0.77 0.03 0  0.78 0.03 0  0.79 0.03 0  0.8 0.03 0  0.8100000000000001 0.03 0  0.82 0.03 0  0.83 0.03 0  0.84 0.03 0  0.85 0.03 0  0.86 0.03 0  0.87 0.03 0  0.88 0.03 0  0.89 0.03 0  0.9 0.03 0  0.91 0.03 0  0.92 0.03 0  0.93 0.03 0  0.9399999999999999 0.03 0  0.95 0.03 0  0.96 0.03 0  0.97 0.03 0  0.98 0.03 0  0.99 0.03 0  1 0.03 0  0 0.04 0  0.01 0.04 0  0.02 0.04 0  0.03 0.04 0  0.04 0.04 0  0.05 0.04 0  0.06 0.04 0  0.07000000000000001 0.04 0  0.08 0.04 0  0.09 0.04 0  0.1 0.04 0  0.11 0.04 0  0.12 0.04 0  0.13 0.04 0  0.14 0.04 0  0.15 0.04 0  0.16 0.04 0  0.17 0.04 0  0.18 0.04 0  0.19 0.04 0  0.2 0.04 0  0.21 0.04 0  0.22 0.04 0  0.23 0.04 0  0.24 0.04 0  0.25 0.04 0  0.26 0.04 0  0.27 0.04 0  0.28 0.04 0  0.29 0.04 0  0.3 0.04 0  0.31 0.04 0  0.32 0.04 0  0.33 0.04 0  0.34 0.04 0  0.35 0.04 0  0.36 0.04 0  0.37 0.04 0  0.38 0.04 0  0.39 0.04 0  0.4 0.04 0  0.41 0.04 0  0.42 0.04 0  0.43 0.04 0  0.44 0.04 0  0.45 0.04 0  0.46 0.04 0  0.47 0.04 0  0.48 0.04 0  0.49 0.04 0  0.5 0.04 0  0.51 0.04 0  0.52 0.04 0  0.53 0.04 0  0.54 0.04 0  0.55 0.04 0  0.5600000000000001 0.04 0  0.57 0.04 0  0.58 0.04 0  0.59 0.04 0  0.6 0.04 0  0.61 0.04 0  0.62 0.04 0  0.63 0.04 0  0.64 0.04 0  0.65 0.04 0  0.66 0.04 0  0.67 0.04 0  0.68 0.04 0  0.6899999999999999 0.04 0  0.7 0.04 0  0.71 0.04 0  0.72 0.04 0  0.73 0.04 0  0.74 0.04 0  0.75 0.04 0  0.76 0.04 0  0.77 0.04 0  0.78 0.04 0  0.79 0.04 0  0.8 0.04 0  0.8100000000000001 0.04 0  0.82 0.04 0  0.83 0.04 0  0.84 0.04 0  0.85 0.04 0  0.86 0.04 0  0.87 0.04 0  0.88 0.04 0  0.89 0.04 0  0.9 0.04 0  0.91 0.04 0  0.92 0.04 0  0.93 0.04 0  0.9399999999999999 0.04 0  0.95 0.04 0  0.96 0.04 0  0.97 0.04 0  0.98 0.04 0  0.99 0.04 0  1 0.04 0  0 0.05 0  0.01 0.05 0  0.02 0.05 0  0.03 0.05 0  0.04 0.05 0  0.05 0.05 0  0.06 0.05 0  0.07000000000000001 0.05 0  0.08 0.05 0  0.09 0.05 0  0.1 0.05 0  0.11 0.05 0  0.12 0.05 0  0.13 0.05 0  0.14 0.05 0  0.15 0.05 0  0.16 0.05 0  0.17 0.05 0  0.18 0.05 0  0.19 0.05 0  0.2 0.05 0  0.21 0.05 0  0.22 0.05 0  0.23 0.05 0  0.24 0.05 0  0.25 0.05 0  0.26 0.05 0  0.27 0.05 0  0.28 0.05 0  0.29 0.05 0  0.3 0.05 0  0.31 0.05 0  0.32 0.05 0  0.33 0.05 0  0.34 0.05 0  0.35 0.05 0  0.36 0.05 0  0.37 0.05 0  0.38 0.05 0  0.39 0.05 0  0.4 0.05 0  0.41 0.05 0  0.42 0.05 0  0.43 0.05 0  0.44 0.05 0  0.45 0.05 0  0.46 0.05 0  0.47 0.05 0  0.48 0.05 0  0.49 0.05 0  0.5 0.05 0  0.51 0.05 0  0.52 0.05 0  0.53 0.05 0  0.54 0.05 0  0.55 0.05 0  0.5600000000000001 0.05 0  0.57 0.05 0  0.58 0.05 0  0.59 0.05 0  0.6 0.05 0  0.61 0.05 0  0.62 0.05 0  0.63 0.05 0  0.64 0.05 0  0.65 0.05 0  0.66 0.05 0  0.67 0.05 0  0.68 0.05 0  0.6899999999999999 0.05 0  0.7 0.05 0  0.71 0.05 0  0.72 0.05 0  0.73 0.05 0  0.74 0.05 0  0.75 0.05 0  0.76 0.05 0  0.77 0.05 0  0.78 0.05 0  0.79 0.05 0  0.8 0.05 0  0.8100000000000001 0.05 0  0.82 0.05 0  0.83 0.05 0  0.84 0.05 0  0.85 0.05 0  0.86 0.05 0  0.87 0.05 0  0.88 0.05 0  0.89 0.05 0  0.9 0.05 0  0.91 0.05 0  0.92 0.05 0  0.93 0.05 0  0.9399999999999999 0.05 0  0.95 0.05 0  0.96 0.05 0  0.97 0.05 0  0.98 0.05 0  0.99 0.05 0  1 0.05 0  0 0.06 0  0.01 0.06 0  0.02 0.06 0  0.03 0.06 0  0.04 0.06 0  0.05 0.06 0  0.06 0.06 0  0.07000000000000001 0.06 0  0.08 0.06 0  0.09 0.06 0  0.1 0.06 0  0.11 0.06 0  0.12 0.06 0  0.13 0.06 0  0.14 0.06 0  0.15 0.06 0  0.16 0.06 0  0.17 0.06 0  0.18 0.06 0  0.19 0.06 0  0.2 0.06 0  0.21 0.06 0  0.22 0.06 0  0.23 0.06 0  0.24 0.06 0  0.25 0.06 0  0.26 0.06 0  0.27 0.06 0  0.28 0.06 0  0.29 0.06 0  0.3 0.06 0  0.31 0.06 0  0.32 0.06 0  0.33 0.06 0  0.34 0.06 0  0.35 0.06 0  0.36 0.06 0  0.37 0.06 0  0.38 0.06 0  0.39 0.06 0  0.4 0.06 0  0.41 0.06 0  0.42 0.06 0  0.43 0.06 0  0.44 0.06 0  0.45 0.06 0  0.46 0.06 0  0.47 0.06 0  0.48 0.06 0  0.49 0.06 0  0.5 0.06 0  0.51 0.06 0  0.52 0.06 0  0.53 0.06 0  0.54 0.06 0  0.55 0.06 0  0.5600000000000001 0.06 0  0.57 0.06 0  0.58 0.06 0  0.59 0.06 0  0.6 0.06 0  0.61 0.06 0  0.62 0.06 0  0.63 0.06 0  0.64 0.06 0  0.65 0.06 0  0.66 0.06 0  0.67 0.06 0  0.68 0.06 0  0.6899999999999999 0.06 0  0.7 0.06 0  0.71 0.06 0  0.72 0.06 0  0.73 0.06 0  0.74 0.06 0  0.75 0.06 0  0.76 0.06 0  0.77 0.06 0  0.78 0.06 0  0.79 0.06 0  0.8 0.06 0  0.8100000000000001 0.06 0  0.82 0.06 0  0.83 0.06 0  0.84 0.06 0  0.85 0.06 0  0.86 0.06 0  0.87 0.06 0  0.88 0.06 0  0.89 0.06 0  0.9 0.06 0  0.91 0.06 0  0.92 0.06 0  0.93 0.06 0  0.9399999999999999 0.06 0  0.95 0.06 0  0.96 0.06 0  0.97 0.06 0  0.98 0.06 0  0.99 0.06 0  1 0.06 0  0 0.07000000000000001 0  0.01 0.07000000000000001 0  0.02 0.07000000000000001 0  0.03 0.07000000000000001 0  0.04 0.07000000000000001 0  0.05 0.07000000000000001 0  0.06 0.07000000000000001 0  0.07000000000000001 0.07000000000000001 0  0.08 0.07000000000000001 0  0.09 0.07000000000000001 0  0.1 0.07000000000000001 0  0.11 0.07000000000000001 0  0.12 0.07000000000000001 0  0.13 0.07000000000000001 0  0.14 0.07000000000000001 0  0.15 0.07000000000000001 0  0.16 0.07000000000000001 0  0.17 0.0700
[...]
<PointData  Scalars="f_17"> 
<DataArray  type="Float64"  Name="f_17"  format="ascii">0.0000000000000000e+00  5.0000000000000000e+01  5.0000000000000000e+01  5.0000000000000000e+01  5.0000000000000000e+01  5.0000000000000000e+01  5.0000000000000000e+01  5.0000000000000000e+01  5.0000000000000000e+01  5.0000000000000000e+01  5.0000000000000000e+01  5.0000000000000000e+01  5.0000000000000000e+01  5.0000000000000000e+01  5.0000000000000000e+01  5.0000000000000000e+01  5.0000000000000000e+01  5.0000000000000000e+01  5.0000000000000000e+01  5.0000000000000000e+01  5.0000000000000000e+01  5.0000000000000000e+01  5.0000000000000000e+01  5.0000000000000000e+01  5.0000000000000000e+01  5.0000000000000000e+01  5.0000000000000000e+01  5.0000000000000000e+01  5.0000000000000000e+01  5.0000000000000000e+01  5.0000000000000000e+01  5.0000000000000000e+01  5.0000000000000000e+01  5.0000000000000000e+01  5.0000000000000000e+01  5.0000000000000000e+01  5.0000000000000000e+01  5.0000000000000000e+01  5.0000000000000000e+01  5.0000000000000000e+01  5.0000000000000000e+01  5.0000000000000000e+01  5.0000000000000000e+01  5.0000000000000000e+01  5.0000000000000000e+01  5.0000000000000000e+01  5.0000000000000000e+01  5.0000000000000000e+01  5.0000000000000000e+01  5.0000000000000000e+01  5.0000000000000000e+01  5.0000000000000000e+01  5.0000000000000000e+01  5.0000000000000000e+01  5.0000000000000000e+01  5.0000000000000000e+01  5.0000000000000000e+01  5.0000000000000000e+01  5.0000000000000000e+01  5.0000000000000000e+01  5.0000000000000000e+01  5.0000000000000000e+01  5.0000000000000000e+01  5.0000000000000000e+01  5.0000000000000000e+01  5.0000000000000000e+01  5.0000000000000000e+01  5.0000000000000000e+01  5.0000000000000000e+01  5.0000000000000000e+01  5.0000000000000000e+01  5.0000000000000000e+01  5.0000000000000000e+01  5.0000000000000000e+01  5.0000000000000000e+01  5.0000000000000000e+01  5.0000000000000000e+01  5.0000000000000000e+01  5.0000000000000000e+01  5.0000000000000000e+01  5.0000000000000000e+01  5.0000000000000000e+01  5.0000000000000000e+01  5.0000000000000000e+01  5.0000000000000000e+01  5.0000000000000000e+01  5.0000000000000000e+01  5.0000000000000000e+01  5.0000000000000000e+01  5.0000000000000000e+01  5.0000000000000000e+01  5.0000000000000000e+01  5.0000000000000000e+01  5.0000000000000000e+01  5.0000000000000000e+01  5.0000000000000000e+01  5.0000000000000000e+01  5.0000000000000000e+01  5.0000000000000000e+01  5.0000000000000000e+01  0.0000000000000000e+00  0.0000000000000000e+00  2.4956556178940183e+01  3.5166809282463525e+01  3.9630264423469065e+01  4.2029415873984306e+01  4.3500869204353329e+01  4.4484663845217270e+01  4.5182540645816971e+01  4.5699102130160398e+01  4.6093760302924458e+01  4.6402689589337385e+01  4.6649151392513645e+01  4.6848775321420355e+01  4.7012448938508285e+01  4.7147988578858396e+01  4.7261150792780533e+01  4.7356268871674501e+01  4.7436666979451601e+01  4.7504937472042393e+01  4.7563131348313405e+01  4.7612891992240300e+01  4.7655550975797439e+01  4.7692197919218295e+01  4.7723732261104708e+01  4.7750902189274171e+01  4.7774334311916071e+01  4.7794556552295354e+01  4.7812016017304906e+01  4.7827093091616021e+01  4.7840112664632834e+01  4.7851353155853069e+01  4.7861053832521790e+01  4.7869420789902158e+01  4.7876631874538973e+01  4.7882840764713102e+01  4.7888180373104518e+01  4.7892765699793259e+01  4.7896696235809316e+01  4.7900057996142465e+01  4.7902925244735414e+01  4.7905361961280093e+01  4.7907423089712523e+01  4.7909155600486855e+01  4.7910599392503862e+01  4.7911788055602727e+01  4.7912749510505911e+01  4.7913506539822905e+01  4.7914077221000447e+01  4.7914475269820279e+01  4.7914710301090835e+01  4.7914788011470819e+01  4.7914710287832385e+01  4.7914475243163366e+01  4.7914077180665615e+01  4.7913506485392716e+01  4.7912749441426044e+01  4.7911787971184545e+01  4.7910599291927383e+01  4.7909155482804742e+01  4.7907422953854372e+01  4.7905361806058139e+01  4.7902925068851140e+01  4.7900057798194290e+01  4.7896696014301369e+01  4.7892765453145536e+01  4.7888180099664382e+01  4.7882840462768016e+01  4.7876631542330813e+01  4.7869420425642495e+01  4.7861053434409030e+01  4.7851352722090510e+01  4.7840112193447780e+01  4.7827092581280148e+01  4.7812015466155366e+01  4.7794555958756327e+01  4.7774333674520761e+01  4.7750901506686709e+01  4.7723731532141777e+01  4.7692197142870072e+01  4.7655550151247269e+01  4.7612891118882715e+01  4.7563130425770566e+01  4.7504936500177436e+01  4.7436665958379265e+01  4.7356267801768162e+01  4.7261149674674961e+01  4.7147987413447886e+01  4.7012447726939314e+01  4.6848774065077748e+01  4.6649150092999662e+01  4.6402688248441052e+01  4.6093758922578878e+01  4.5699100712382716e+01  4.5182539192619366e+01  4.4484662358463659e+01  4.3500867685492643e+01  4.2029414323445970e+01  3.9630262838916600e+01  3.5166807652223000e+01  2.4956554449934135e+01  0.0000000000000000e+00  0.0000000000000000e+00  1.4659654559142243e+01  2.4826703619708223e+01  3.1025315982967239e+01  3.4896735342239324e+01  3.7457261864239797e+01  3.9242423917782624e+01  4.0541207062690290e+01  4.1518386289176853e+01  4.2273311765677370e+01  4.2868936966992287e+01  4.3346889780563480e+01  4.3735714447237463e+01  4.4055600046665994e+01  4.4321211390788719e+01  4.4543448594558335e+01  4.4730577375935859e+01  4.4888976507173631e+01  4.5023644954087843e+01  4.5138553922658616e+01  4.5236896296116250e+01  4.5321266656622697e+01  4.5393793395431082e+01  4.5456237147546091e+01  4.5510065162648274e+01  4.5556508219112452e+01  4.5596604697316188e+01  4.5631235086236771e+01  4.5661149277550571e+01  4.5686988361642833e+01  4.5709302188696952e+01  4.5728563635687976e+01  4.5745180287098336e+01  4.5759504066863947e+01  4.5771839233303247e+01  4.5782449055017949e+01  4.5791561415214993e+01  4.5799373538373203e+01  4.5806055992235407e+01  4.5811756086544008e+01  4.5816600765409405e+01  4.5820699071014438e+01  4.5824144241211279e+01  4.5827015491529501e+01  4.5829379522457664e+01  4.5831291785039653e+01  4.5832797531424255e+01  4.5833932671699756e+01  4.5834724453877946e+01  4.5835191980063904e+01  4.5835346568504264e+01  4.5835191968202523e+01  4.5834724430026753e+01  4.5833932635602437e+01  4.5832797482697643e+01  4.5831291723175227e+01  4.5829379446823452e+01  4.5827015401372897e+01  4.5824144135662770e+01  4.5820698949091359e+01  4.5816600626021149e+01  4.5811755928498236e+01  4.5806055814244779e+01  4.5799373339063578e+01  4.5791561193134982e+01  4.5782448808648766e+01  4.5771838961071104e+01  4.5759503767152722e+01  4.5745179958263648e+01  4.5728563276072634e+01  4.5709301796647814e+01  4.5686987935527711e+01  4.5661148815776436e+01  4.5631234587268978e+01  4.5596604159697485e+01  4.5556507641482021e+01  4.5510064543760841e+01  4.5456236486290152e+01  4.5393792690846212e+01  4.5321265907915119e+01  4.5236895502672390e+01  4.5138553084056397e+01  4.5023644070104517e+01  4.4888975577790049e+01  4.4730576401336101e+01  4.4543447575124610e+01  4.4321210327089659e+01  4.4055598939438262e+01  4.3735713297358622e+01  4.3346888589014803e+01  4.2868935734808112e+01  4.2273310493876458e+01  4.1518384978668273e+01  4.0541205714138705e+01  3.9242422531402887e+01  3.7457260439458764e+01  3.4896733877094242e+01  3.1025314473037849e+01  2.4826702057090166e+01  1.4659652942132269e+01  0.0000000000000000e+00  0.0000000000000000e+00  1.0110030834582524e+01  1.8455993066788743e+01  2.4611878546268937e+01  2.9000377219687966e+01  3.2153644708014163e+01  3.4470319981361506e+01  3.6214604433865389e+01  3.7557938823591442e+01  3.8612945945018794e+01  3.9455352115781565e+01  4.0137409624659966e+01  4.0696094942827678e+01  4.1158194692952826e+01  4.1543530918177737e+01  4.1867055231442215e+01  4.2140240483185416e+01  4.2372026177320180e+01  4.2569474032038457e+01  4.2738231242543186e+01  4.2882863612904146e+01  4.3007098988850196e+01  4.3114007797346133e+01  4.3206138786943292e+01  4.3285622388209433e+01  4.3354250351928535e+01  4.3413537788080518e+01  4.3464771994308236e+01  4.3509051258829125e+01  4.3547315976019078e+01  4.3580373809824614e+01  4.3608920205600491e+01  4.3633555234404746e+01  4.3654797520814100e+01  4.3673095832221982e+01  4.3688838777807426e+01  4.3702362967235956e+01  4.3713959904361666e+01  4.3723881833748422e+01  4.3732346713367711e+01  4.3739542452174483e+01  4.3745630524043634e+01  4.3750749048019493e+01  4.3755015407658085e+01  4.3758528468435237e+01  4.3761370440981530e+01  4.3763608428705794e+01  4.3765295690723832e+01  4.3766472644560430e+01  4.3767167627558877e+01  4.3767397431080930e+01  4.3767167617225908e+01  4.3766472623776501e+01  4.3765295659253304e+01  4.3763608386196360e+01  4.3761370386965289e+01  4.3758528402330697e+01  4.3755015328772394e+01  4.3750748955551543e+01  4.3745630417087682e+01  4.3739542329724550e+01  4.3732346574323110e+01  4.3723881676919731e+01  4.3713959728478365e+01  4.3702362770954551e+01  4.3688838559721212e+01  4.3673095590871455e+01  4.3654797254698885e+01  4.3633554941996621e+01  4.3608919885357246e+01  4.3580373460205308e+01  4.3547315595499668e+01  4.3509050845919091e+01  4.3464771547567523e+01  4.3413537306136739e+01  4.3354249833493910e+01  4.3285621832097398e+01  4.3206138192084005e+01  4.3114007162800704e+01  4.3007098313823249e+01  4.2882862896753409e+01  4.2738230484786783e+01  4.2569473232357993e+01  4.2372025335559528e+01  4.2140239599344582e+01  4.1867054305664929e+01  4.1543529950731902e+01  4.1158193684202715e+01  4.0696093893196007e+01  4.0137408534577702e+01  3.9455350985622118e+01  3.8612944775012338e+01  3.7557937613711537e+01  3.6214603183676658e+01  3.4470318689811869e+01  3.2153643373151027e+01  2.9000375838306287e+01  2.4611877113671031e+01  1.8455991577496352e+01  1.0110029284821536e+01  0.0000000000000000e+00  0.0000000000000000e+00  7.6254255720193305e+00  1.4413903034563534e+01  1.9967964165786235e+01  2.4314441702131614e+01  2.7667231290427360e+01  3.0259730160992479e+01  3.2284394816695496e+01  3.3885454807404486e+01  3.5167608139718297e+01  3.6206482321893901e+01  3.7057094725807794e+01  3.7759965823485345e+01  3.8345369126095861e+01  3.8836256911319737e+01  3.9250280674565659e+01  3.9601199373185459e+01  3.9899872871794344e+01  4.0154972070201609e+01  4.0373493375390616e+01  4.0561136380639901e+01  4.0722584681002417e+01  4.0861717226632706e+01  4.0981769247853109e+01  4.1085456135336059e+01  4.1175069798488671e+01  4.1252554356654834e+01  4.1319566151570413e+01  4.1377521749562561e+01  4.1427636658167550e+01  4.1470956799900257e+01  4.1508384288262377e+01  4.1540698684471643e+01  4.1568574640898746e+01  4.1592596632919083e+01  4.1613271326506663e+01  4.1631038011325018e+01  4.1646277438869937e+01  4.1659319335519612e+01  4.1670448806120078e+01  4.1679911801250803e+01  4.1687919787798442e+01  4.1694653735840610e+01  4.1700267513521460e+01  4.1704890764390790e+01  4.1708631327656967e+01  4.1711577250258657e+01  4.1713798430031574e+01  4.1715347921102598e+01  4.1716262925634076e+01  4.1716565489876444e+01  4.1716262916946285e+01  4.1715347903618152e+01  4.1713798403533005e+01  4.1711577214420714e+01  4.1708631282047200e+01  4.1704890708471694e+01  4.1700267446651843e+01  4.1694653657278245e+01  4.1687919696703077e+01  4.1679911696688194e+01  4.1670448687066170e+01  4.1659319200866335e+01  4.1646277287431602e+01  4.1631037841845682e+01  4.1613271137668733e+01  4.1592596423352958e+01  4.1568574409193452e+01  4.1540698429186861e+01  4.1508384007941252e+01  4.1470956493083158e+01  4.1427636323406574e+01  4.1377521385437021e+01  4.1319565756701941e+01  4.1252553929723355e+01  4.1175069338247681e+01  4.1085455640627345e+01  4.0981768717620263e+01  4.0861716659933329e+01  4.0722584077017963e+01  4.0561135738682786e+01  4.0373492694908066e+01  4.0154971350775270e+01  3.9899872113134968e+01  3.9601198575121970e+01  3.9250279837027406e+01  3.8836256034310608e+01  3.8345368209659441e+01  3.7759964867659050e+01  3.7057093730563622e+01  3.6206481287063333e+01  3.5167607064897339e+01  3.3885453691833959e+01  3.2284393659110329e+01  3.0259728959436753e+01  2.7667230042039503e+01  2.4314440402941031e+01  1.9967962810638525e+01  1.4413901617305891e+01  7.6254240854829591e+00  0.0000000000000000e+00  0.0000000000000000e+00  6.0694620784432658e+00  1.1684590481016157e+01  1.6562101305250145e+01  2.0625942271982918e+01  2.3937633320898787e+01  2.6614173501767027e+01  2.8777655176342009e+01  3.0534433513728249e+01  3.1970368002238068e+01  3.3152526804914309e+01  3.4132674655901269e+01  3.4950717616082969e+01  3.5637558478525115e+01  3.6217306004452119e+01  3.6708934397525134e+01  3.7127515792084338e+01  3.7485133891312266e+01  3.7791563441700482e+01  3.8054778641700416e+01  3.8281336465824978e+01  3.8476668123761399e+01  3.8645302621901280e+01  3.8791039767500102e+01  3.8917085225801344e+01  3.9026156860638636e+01  3.9120569164167364e+01  3.9202300831724578e+01  3.9273049266935026e+01  3.9334274872425716e+01  3.9387237296272708e+01  3.9433025295506873e+01  3.9472581497429793e+01  3.9506723052767001e+01  3.9536158957147371e+01  3.9561504651225249e+01  3.9583294381985610e+01  3.9601991708888541e+01  3.9617998461497713e+01  3.9631662394891137e+01  3.9643283741559593e+01  3.9653120820731054e+01  3.9661394835877502e+01  3.9668293966874373e+01  3.9673976843575680e+01  3.9678575471440055e+01  3.9682197666497409e+01  3.9684929045776400e+01  3.9686834609817822e+01  3.9687959945700904e+01  3.9688332071774866e+01  3.9687959938760123e+01  3.9686834595835222e+01  3.9684929024550208e+01  3.9682197637725402e+01  3.9678575434720337e+01  3.9673976798407935e+01  3.9668293912660815e+01  3.9661394771925153e+01  3.9653120746253904e+01  3.9643283655681799e+01  3.9631662296650681e+01  3.9617998349851064e+01  3.9601991582716217e+01  3.9583294240098738e+01  3.9561504492372997e+01  3.9536158780025772e+01  3.9506722856028588e+01  3.9472581279694673e+01  3.9433025055374372e+01  3.9387237032334390e+01  3.9334274583278940e+01  3.9273048951197261e+01  3.9202300488047811e+01  3.9120568791252786e+01  3.9026156457251048e+01  3.8917084790782660e+01  3.8791039299781723e+01  3.8645302120514835e+01  3.8476667587847039e+01  3.8281335894636754e+01  3.8054778034607942e+01  3.7791562798186199e+01  3.7485133210963433e+01  3.7127515074578639e+01  3.6708933642609324e+01  3.6217305211912056e+01  3.5637557648146057e+01  3.4950716747598683e+01  3.4132673748929847e+01  3.3152525858878469e+01  3.1970367016267591e+01  3.0534432486541562e+01  2.8777654106105167e+01  2.6614172385931592e+01  2.3937632156027746e+01  2.0625941053587173e+01  1.6562100027660680e+01  1.1684589137245698e+01  6.0694606597824636e+00  0.0000000000000000e+00  0.0000000000000000e+00  5.0023219491200530e+00  9.7329684695367362e+00  1.3996311594358170e+01  1.7702359619947121e+01  2.0848944555176455e+01  2.3485510543624361e+01  2.5682021690365936e+01  2.7510137765413681e+01  2.9034462552558377e+01  3.0309753246508500e+01  3.1381004147714563e+01  3.2284648329723460e+01  3.3050026007028656e+01  3.3700762875213833e+01  3.4255940322361127e+01  3.4731043076865674e+01  3.5138708850632689e+01  3.5489314865090904e+01  3.5791434948902520e+01  3.6052195862169448e+01  3.6277555852870144e+01  3.6472523384300885e+01  3.6641329814196837e+01  3.6787566538534463e+01  3.6914294602323267e+01  3.7024132872806796e+01  3.7119329429734144e+01  3.7201819740265726e+01  3.7273274364931012e+01  3.7335138319153089e+01  3.7388663742128863e+01  3.7434937163975285e+01  3.7474902385270440e+01  3.7509379769791352e+01  3.7539082586001193e+01  3.7564630904179708e+01  3.7586563455401681e+01  3.7605347779358532e+01  3.7621388925374148e+01  3.7635036921152064e+01  3.7646593183949285e+01  3.7656316016811267e+01  3.7664425306526553e+01  3.7671106518753547e+01  3.7676514068307590e+01  3.7680774128070624e+01  3.7683986927752791e+01  3.7686228583293378e+01  3.7687552488618131e+01  3.7687990293439505e+01  3.7687552483511226e+01  3.7686228572985151e+01  3.7683986912054493e+01  3.7680774106699459e+01  3.7676514040887000e+01  3.7671106484813720e+01  3.7664425265505251e+01  3.7656315968055196e+01  3.7646593126715608e+01  3.7635036854610625e+01  3.7621388848610358e+01  3.7605347691377226e+01  3.7586563355131609e+01  3.7564630790479114e+01  3.7539082457664477e+01  3.7509379625556917e+01  3.7474902223829389e+01  3.7434936983981672e+01  3.7388663542210573e+01  3.7335138097924307e+01  3.7273274121004995e+01  3.7201819472268475e+01  3.7119329136318370e+01  3.7024132552666266e+01  3.6914294254206474e+01  3.6787566161257807e+01  3.6641329406656631e+01  3.6472522945483348e+01  3.6277555381859237e+01  3.6052195358151387e+01  3.5791434411166563e+01  3.5489314293025267e+01  3.5138708243715378e+01  3.4731042434648202e+01  3.4255939644445228e+01  3.3700762161219345e+01  3.3050025256551500e+01  3.2284647542282485e+01  3.1381003322685590e+01  3.0309752383044206e+01  2.9034461649492169e+01  2.7510136821146766e+01  2.5682020702737411e+01  2.3485509509766519e+01  2.0848943471361181e+01  1.7702358481429581e+01  1.3996310395213653e+01  9.7329672024515101e+00  5.0023206050531606e+00  0.0000000000000000e+00  0.0000000000000000e+00  4.2224757507025563e+00  8.2704736775467165e+00  1.2007025513585209e+01  1.5352076991079022e+01  1.8280117924038024e+01  2.0805025145105905e+01  2.2962870126721285e+01  2.4798612569923353e+01  2.6357874256941390e+01  2.7682736870694946e+01  2.8810089927298083e+01  2.9771370275093648e+01  3.0592959025031661e+01  3.1296826110375132e+01  3.1901215825631372e+01  3.2421280791371977e+01  3.2869631033453508e+01  3.3256793339995070e+01  3.3591588333063974e+01  3.3881436894705949e+01  3.4132608028334268e+01  3.4350419106973796e+01  3.4539397823617875e+01  3.4703413500917307e+01  3.4845783934052349e+01  3.4969362690605870e+01  3.5076610771624267e+01  3.5169655721724062e+01  3.5250340629505516e+01  3.5320264950352950e+01  3.5380818683815271e+01  3.5433211123897657e+01  3.5478495154059601e+01  3.5517587864714997e+01  3.5551288117999256e+01  3.5580291563487108e+01  3.5605203512430840e+01  3.5626550001496085e+01  3.5644787315701493e+01  3.5660310191027733e+01  3.5673458877401742e+01  3.5684525210479450e+01  3.5693757814279294e+01  3.5701366535020732e+01  3.5707526188523282e+01  3.5712379688441537e+01  3.5716040609832767e+01  3.5718595231570205e+01  3.5720104091525201e+01  3.5720603079899988e+01  3.5720104088324049e+01  3.5718595225078907e+01  3.5716040599873317e+01  3.5712379674746806e+01  3.5707526170736976e+01  3.5701366512697490e+01  3.5693757786884724e+01  3.5684525177390867e+01  3.5673458837908846e+01  3.5660310144333991e+01  3.5644787260926130e+01  3.5626549937676778e+01  3.5605203438527568e+01  3.5580291478386634e+01  3.5551288020520921e+01  3.5517587753617605e+01  3.5478495028049494e+01  3.5433210981638325e+01  3.5380818523937485e+01  3.5320264771466938e+01  3.5250340430213264e+01  3.5169655500632885e+01  3.5076610527360671e+01  3.4969362421829956e+01  3.4845783639471584e+01  3.4703413179299865e+01  3.4539397473804975e+01  3.4350418727890087e+01  3.4132607618995713e+01  3.3881436454224747e+01  3.3591587860649469e+01  3.3256792834949806e+01  3.2869630495163790e+01  3.2421280219291624e+01  3.1901215219258020e+01  3.1296825469217911e+01  3.0592958348568967e+01  2.9771369562720114e+01  2.8810089178259769e+01  2.7682736084011303e+01  2.6357873431313720e+01  2.4798611703629106e+01  2.2962869217495104e+01  2.0805024190009146e+01  1.8280116919319443e+01  1.5352075932027885e+01  1.2007024394371543e+01  8.2704724910349956e+00  4.2224744882211160e+00  0.0000000000000000e+00  0.0000000000000000e+00  3.6255211443718203e+00  7.1327309221815405e+00  1.0423400614210315e+01  1.3431659978295675e+01  1.6125788031911341e+01  1.8502239222312390e+01  2.0576611172175760e+01  2.2375158610600153e+01  2.3928456975968423e+01  2.5267367159243012e+01  2.6420812688781147e+01  2.7414769902081815e+01  2.8271981970675945e+01  2.9012061598835242e+01  2.9651775633499685e+01  3.0205393801747487e+01  3.0685039534656667e+01  3.1101013468343037e+01  3.1462078269031476e+01  3.1775702834698905e+01  3.2048268425069743e