<?xml version="1.0"?>
<VTKFile type="UnstructuredGrid"  version="0.1"  >
<UnstructuredGrid>
<Piece  NumberOfPoints="10201" NumberOfCells="20000">
<Points>
<DataArray  type="Float64"  NumberOfComponents="3"  format="ascii">0 0 0  0.01 0 0  0.02 0 0  0.03 0 0  0.04 0 0  0.05 0 0  0.06 0 0  0.07000000000000001 0 0  0.08 0 0  0.09 0 0  0.1 0 0  0.11 0 0  0.12 0 0  0.13 0 0  0.14 0 0  0.15 0 0  0.16 0 0  0.17 0 0  0.18 0 0  0.19 0 0  0.2 0 0  0.21 0 0  0.22 0 0  0.23 0 0  0.24 0 0  0.25 0 0  0.26 0 0  0.27 0 0  0.28 0 0  0.29 0 0  0.3 0 0  0.31 0 0  0.32 0 0  0.33 0 0  0.34 0 0  0.35 0 0  0.36 0 0  0.37 0 0  0.38 0 0  0.39 0 0  0.4 0 0  0.41 0 0  0.42 0 0  0.43 0 0  0.44 0 0  0.45 0 0  0.46 0 0  0.47 0 0  0.48 0 0  0.49 0 0  0.5 0 0  0.51 0 0  0.52 0 0  0.53 0 0  0.54 0 0  0.55 0 0  0.5600000000000001 0 0  0.57 0 0  0.58 0 0  0.59 0 0  0.6 0 0  0.61 0 0  0.62 0 0  0.63 0 0  0.64 0 0  0.65 0 0  0.66 0 0  0.67 0 0  0.68 0 0  0.6899999999999999 0 0  0.7 0 0  0.71 0 0  0.72 0 0  0.73 0 0  0.74 0 0  0.75 0 0  0.76 0 0  0.77 0 0  0.78 0 0  0.79 0 0  0.8 0 0  0.8100000000000001 0 0  0.82 0 0  0.83 0 0  0.84 0 0  0.85 0 0  0.86 0 0  0.87 0 0  0.88 0 0  0.89 0 0  0.9 0 0  0.91 0 0  0.92 0 0  0.93 0 0  0.9399999999999999 0 0  0.95 0 0  0.96 0 0  0.97 0 0  0.98 0 0  0.99 0 0  1 0 0  0 0.01 0  0.01 0.01 0  0.02 0.01 0  0.03 0.01 0  0.04 0.01 0  0.05 0.01 0  0.06 0.01 0  0.07000000000000001 0.01 0  0.08 0.01 0  0.09 0.01 0  0.1 0.01 0  0.11 0.01 0  0.12 0.01 0  0.13 0.01 0  0.14 0.01 0  0.15 0.01 0  0.16 0.01 0  0.17 0.01 0  0.18 0.01 0  0.19 0.01 0  0.2 0.01 0  0.21 0.01 0  0.22 0.01 0  0.23 0.01 0  0.24 0.01 0  0.25 0.01 0  0.26 0.01 0  0.27 0.01 0  0.28 0.01 0  0.29 0.01 0  0.3 0.01 0  0.31 0.01 0  0.32 0.01 0  0.33 0.01 0  0.34 0.01 0  0.35 0.01 0  0.36 0.01 0  0.37 0.01 0  0.38 0.01 0  0.39 0.01 0  0.4 0.01 0  0.41 0.01 0  0.42 0.01 0  0.43 0.01 0  0.44 0.01 0  0.45 0.01 0  0.46 0.01 0  0.47 0.01 0  0.48 0.01 0  0.49 0.01 0  0.5 0.01 0  0.51 0.01 0  0.52 0.01 0  0.53 0.01 0  0.54 0.01 0  0.55 0.01 0  0.5600000000000001 0.01 0  0.57 0.01 0  0.58 0.01 0  0.59 0.01 0  0.6 0.01 0  0.61 0.01 0  0.62 0.01 0  0.63 0.01 0  0.64 0.01 0  0.65 0.01 0  0.66 0.01 0  0.67 0.01 0  0.68 0.01 0  0.6899999999999999 0.01 0  0.7 0.01 0  0.71 0.01 0  0.72 0.01 0  0.73 0.01 0  0.74 0.01 0  0.75 0.01 0  0.76 0.01 0  0.77 0.01 0  0.78 0.01 0  0.79 0.01 0  0.8 0.01 0  0.8100000000000001 0.01 0  0.82 0.01 0  0.83 0.01 0  0.84 0.01 0  0.85 0.01 0  0.86 0.01 0  0.87 0.01 0  0.88 0.01 0  0.89 0.01 0  0.9 0.01 0  0.91 0.01 0  0.92 0.01 0  0.93 0.01 0  0.9399999999999999 0.01 0  0.95 0.01 0  0.96 0.01 0  0.97 0.01 0  0.98 0.01 0  0.99 0.01 0  1 0.01 0  0 0.02 0  0.01 0.02 0  0.02 0.02 0  0.03 0.02 0  0.04 0.02 0  0.05 0.02 0  0.06 0.02 0  0.07000000000000001 0.02 0  0.08 0.02 0  0.09 0.02 0  0.1 0.02 0  0.11 0.02 0  0.12 0.02 0  0.13 0.02 0  0.14 0.02 0  0.15 0.02 0  0.16 0.02 0  0.17 0.02 0  0.18 0.02 0  0.19 0.02 0  0.2 0.02 0  0.21 0.02 0  0.22 0.02 0  0.23 0.02 0  0.24 0.02 0  0.25 0.02 0  0.26 0.02 0  0.27 0.02 0  0.28 0.02 0  0.29 0.02 0  0.3 0.02 0  0.31 0.02 0  0.32 0.02 0  0.33 0.02 0  0.34 0.02 0  0.35 0.02 0  0.36 0.02 0  0.37 0.02 0  0.38 0.02 0  0.39 0.02 0  0.4 0.02 0  0.41 0.02 0  0.42 0.02 0  0.43 0.02 0  0.44 0.02 0  0.45 0.02 0  0.46 0.02 0  0.47 0.02 0  0.48 0.02 0  0.49 0.02 0  0.5 0.02 0  0.51 0.02 0  0.52 0.02 0  0.53 0.02 0  0.54 0.02 0  0.55 0.02 0  0.5600000000000001 0.02 0  0.57 0.02 0  0.58 0.02 0  0.59 0.02 0  0.6 0.02 0  0.61 0.02 0  0.62 0.02 0  0.63 0.02 0  0.64 0.02 0  0.65 0.02 0  0.66 0.02 0  0.67 0.02 0  0.68 0.02 0  0.6899999999999999 0.02 0  0.7 0.02 0  0.71 0.02 0  0.72 0.02 0  0.73 0.02 0  0.74 0.02 0  0.75 0.02 0  0.76 0.02 0  0.77 0.02 0  0.78 0.02 0  0.79 0.02 0  0.8 0.02 0  0.8100000000000001 0.02 0  0.82 0.02 0  0.83 0.02 0  0.84 0.02 0  0.85 0.02 0  0.86 0.02 0  0.87 0.02 0  0.88 0.02 0  0.89 0.02 0  0.9 0.02 0  0.91 0.02 0  0.92 0.02 0  0.93 0.02 0  0.9399999999999999 0.02 0  0.95 0.02 0  0.96 0.02 0  0.97 0.02 0  0.98 0.02 0  0.99 0.02 0  1 0.02 0  0 0.03 0  0.01 0.03 0  0.02 0.03 0  0.03 0.03 0  0.04 0.03 0  0.05 0.03 0  0.06 0.03 0  0.07000000000000001 0.03 0  0.08 0.03 0  0.09 0.03 0  0.1 0.03 0  0.11 0.03 0  0.12 0.03 0  0.13 0.03 0  0.14 0.03 0  0.15 0.03 0  0.16 0.03 0  0.17 0.03 0  0.18 0.03 0  0.19 0.03 0  0.2 0.03 0  0.21 0.03 0  0.22 0.03 0  0.23 0.03 0  0.24 0.03 0  0.25 0.03 0  0.26 0.03 0  0.27 0.03 0  0.28 0.03 0  0.29 0.03 0  0.3 0.03 0  0.31 0.03 0  0.32 0.03 0  0.33 0.03 0  0.34 0.03 0  0.35 0.03 0  0.36 0.03 0  0.37 0.03 0  0.38 0.03 0  0.39 0.03 0  0.4 0.03 0  0.41 0.03 0  0.42 0.03 0  0.43 0.03 0  0.44 0.03 0  0.45 0.03 0  0.46 0.03 0  0.47 0.03 0  0.48 0.03 0  0.49 0.03 0  0.5 0.03 0  0.51 0.03 0  0.52 0.03 0  0.53 0.03 0  0.54 0.03 0  0.55 0.03 0  0.5600000000000001 0.03 0  0.57 0.03 0  0.58 0.03 0  0.59 0.03 0  0.6 0.03 0  0.61 0.03 0  0.62 0.03 0  0.63 0.03 0  0.64 0.03 0  0.65 0.03 0  0.66 0.03 0  0.67 0.03 0  0.68 0.03 0  0.6899999999999999 0.03 0  0.7 0.03 0  0.71 0.03 0  0.72 0.03 0  0.73 0.03 0  0.74 0.03 0  0.75 0.03 0  0.76 0.03 0  0.77 0.03 0  0.78 0.03 0  0.79 0.03 0  0.8 0.03 0  0.8100000000000001 0.03 0  0.82 0.03 0  0.83 0.03 0  0.84 0.03 0  0.85 0.03 0  0.86 0.03 0  0.87 0.03 0  0.88 0.03 0  0.89 0.03 0  0.9 0.03 0  0.91 0.03 0  0.92 0.03 0  0.93 0.03 0  0.9399999999999999 0.03 0  0.95 0.03 0  0.96 0.03 0  0.97 0.03 0  0.98 0.03 0  0.99 0.03 0  1 0.03 0  0 0.04 0  0.01 0.04 0  0.02 0.04 0  0.03 0.04 0  0.04 0.04 0  0.05 0.04 0  0.06 0.04 0  0.07000000000000001 0.04 0  0.08 0.04 0  0.09 0.04 0  0.1 0.04 0  0.11 0.04 0  0.12 0.04 0  0.13 0.04 0  0.14 0.04 0  0.15 0.04 0  0.16 0.04 0  0.17 0.04 0  0.18 0.04 0  0.19 0.04 0  0.2 0.04 0  0.21 0.04 0  0.22 0.04 0  0.23 0.04 0  0.24 0.04 0  0.25 0.04 0  0.26 0.04 0  0.27 0.04 0  0.28 0.04 0  0.29 0.04 0  0.3 0.04 0  0.31 0.04 0  0.32 0.04 0  0.33 0.04 0  0.34 0.04 0  0.35 0.04 0  0.36 0.04 0  0.37 0.04 0  0.38 0.04 0  0.39 0.04 0  0.4 0.04 0  0.41 0.04 0  0.42 0.04 0  0.43 0.04 0  0.44 0.04 0  0.45 0.04 0  0.46 0.04 0  0.47 0.04 0  0.48 0.04 0  0.49 0.04 0  0.5 0.04 0  0.51 0.04 0  0.52 0.04 0  0.53 0.04 0  0.54 0.04 0  0.55 0.04 0  0.5600000000000001 0.04 0  0.57 0.04 0  0.58 0.04 0  0.59 0.04 0  0.6 0.04 0  0.61 0.04 0  0.62 0.04 0  0.63 0.04 0  0.64 0.04 0  0.65 0.04 0  0.66 0.04 0  0.67 0.04 0  0.68 0.04 0  0.6899999999999999 0.04 0  0.7 0.04 0  0.71 0.04 0  0.72 0.04 0  0.73 0.04 0  0.74 0.04 0  0.75 0.04 0  0.76 0.04 0  0.77 0.04 0  0.78 0.04 0  0.79 0.04 0  0.8 0.04 0  0.8100000000000001 0.04 0  0.82 0.04 0  0.83 0.04 0  0.84 0.04 0  0.85 0.04 0  0.86 0.04 0  0.87 0.04 0  0.88 0.04 0  0.89 0.04 0  0.9 0.04 0  0.91 0.04 0  0.92 0.04 0  0.93 0.04 0  0.9399999999999999 0.04 0  0.95 0.04 0  0.96 0.04 0  0.97 0.04 0  0.98 0.04 0  0.99 0.04 0  1 0.04 0  0 0.05 0  0.01 0.05 0  0.02 0.05 0  0.03 0.05 0  0.04 0.05 0  0.05 0.05 0  0.06 0.05 0  0.07000000000000001 0.05 0  0.08 0.05 0  0.09 0.05 0  0.1 0.05 0  0.11 0.05 0  0.12 0.05 0  0.13 0.05 0  0.14 0.05 0  0.15 0.05 0  0.16 0.05 0  0.17 0.05 0  0.18 0.05 0  0.19 0.05 0  0.2 0.05 0  0.21 0.05 0  0.22 0.05 0  0.23 0.05 0  0.24 0.05 0  0.25 0.05 0  0.26 0.05 0  0.27 0.05 0  0.28 0.05 0  0.29 0.05 0  0.3 0.05 0  0.31 0.05 0  0.32 0.05 0  0.33 0.05 0  0.34 0.05 0  0.35 0.05 0  0.36 0.05 0  0.37 0.05 0  0.38 0.05 0  0.39 0.05 0  0.4 0.05 0  0.41 0.05 0  0.42 0.05 0  0.43 0.05 0  0.44 0.05 0  0.45 0.05 0  0.46 0.05 0  0.47 0.05 0  0.48 0.05 0  0.49 0.05 0  0.5 0.05 0  0.51 0.05 0  0.52 0.05 0  0.53 0.05 0  0.54 0.05 0  0.55 0.05 0  0.5600000000000001 0.05 0  0.57 0.05 0  0.58 0.05 0  0.59 0.05 0  0.6 0.05 0  0.61 0.05 0  0.62 0.05 0  0.63 0.05 0  0.64 0.05 0  0.65 0.05 0  0.66 0.05 0  0.67 0.05 0  0.68 0.05 0  0.6899999999999999 0.05 0  0.7 0.05 0  0.71 0.05 0  0.72 0.05 0  0.73 0.05 0  0.74 0.05 0  0.75 0.05 0  0.76 0.05 0  0.77 0.05 0  0.78 0.05 0  0.79 0.05 0  0.8 0.05 0  0.8100000000000001 0.05 0  0.82 0.05 0  0.83 0.05 0  0.84 0.05 0  0.85 0.05 0  0.86 0.05 0  0.87 0.05 0  0.88 0.05 0  0.89 0.05 0  0.9 0.05 0  0.91 0.05 0  0.92 0.05 0  0.93 0.05 0  0.9399999999999999 0.05 0  0.95 0.05 0  0.96 0.05 0  0.97 0.05 0  0.98 0.05 0  0.99 0.05 0  1 0.05 0  0 0.06 0  0.01 0.06 0  0.02 0.06 0  0.03 0.06 0  0.04 0.06 0  0.05 0.06 0  0.06 0.06 0  0.07000000000000001 0.06 0  0.08 0.06 0  0.09 0.06 0  0.1 0.06 0  0.11 0.06 0  0.12 0.06 0  0.13 0.06 0  0.14 0.06 0  0.15 0.06 0  0.16 0.06 0  0.17 0.06 0  0.18 0.06 0  0.19 0.06 0  0.2 0.06 0  0.21 0.06 0  0.22 0.06 0  0.23 0.06 0  0.24 0.06 0  0.25 0.06 0  0.26 0.06 0  0.27 0.06 0  0.28 0.06 0  0.29 0.06 0  0.3 0.06 0  0.31 0.06 0  0.32 0.06 0  0.33 0.06 0  0.34 0.06 0  0.35 0.06 0  0.36 0.06 0  0.37 0.06 0  0.38 0.06 0  0.39 0.06 0  0.4 0.06 0  0.41 0.06 0  0.42 0.06 0  0.43 0.06 0  0.44 0.06 0  0.45 0.06 0  0.46 0.06 0  0.47 0.06 0  0.48 0.06 0  0.49 0.06 0  0.5 0.06 0  0.51 0.06 0  0.52 0.06 0  0.53 0.06 0  0.54 0.06 0  0.55 0.06 0  0.5600000000000001 0.06 0  0.57 0.06 0  0.58 0.06 0  0.59 0.06 0  0.6 0.06 0  0.61 0.06 0  0.62 0.06 0  0.63 0.06 0  0.64 0.06 0  0.65 0.06 0  0.66 0.06 0  0.67 0.06 0  0.68 0.06 0  0.6899999999999999 0.06 0  0.7 0.06 0  0.71 0.06 0  0.72 0.06 0  0.73 0.06 0  0.74 0.06 0  0.75 0.06 0  0.76 0.06 0  0.77 0.06 0  0.78 0.06 0  0.79 0.06 0  0.8 0.06 0  0.8100000000000001 0.06 0  0.82 0.06 0  0.83 0.06 0  0.84 0.06 0  0.85 0.06 0  0.86 0.06 0  0.87 0.06 0  0.88 0.06 0  0.89 0.06 0  0.9 0.06 0  0.91 0.06 0  0.92 0.06 0  0.93 0.06 0  0.9399999999999999 0.06 0  0.95 0.06 0  0.96 0.06 0  0.97 0.06 0  0.98 0.06 0  0.99 0.06 0  1 0.06 0  0 0.07000000000000001 0  0.01 0.07000000000000001 0  0.02 0.07000000000000001 0  0.03 0.07000000000000001 0  0.04 0.07000000000000001 0  0.05 0.07000000000000001 0  0.06 0.07000000000000001 0  0.07000000000000001 0.07000000000000001 0  0.08 0.07000000000000001 0  0.09 0.07000000000000001 0  0.1 0.07000000000000001 0  0.11 0.07000000000000001 0  0.12 0.07000000000000001 0  0.13 0.07000000000000001 0  0.14 0.07000000000000001 0  0.15 0.07000000000000001 0  0.16 0.07000000000000001 0  0.17 0.0700
[...]
<PointData  Scalars="f_17"> 
<DataArray  type="Float64"  Name="f_17"  format="ascii">0.0000000000000000e+00  5.0000000000000000e+01  5.0000000000000000e+01  5.0000000000000000e+01  5.0000000000000000e+01  5.0000000000000000e+01  5.0000000000000000e+01  5.0000000000000000e+01  5.0000000000000000e+01  5.0000000000000000e+01  5.0000000000000000e+01  5.0000000000000000e+01  5.0000000000000000e+01  5.0000000000000000e+01  5.0000000000000000e+01  5.0000000000000000e+01  5.0000000000000000e+01  5.0000000000000000e+01  5.0000000000000000e+01  5.0000000000000000e+01  5.0000000000000000e+01  5.0000000000000000e+01  5.0000000000000000e+01  5.0000000000000000e+01  5.0000000000000000e+01  5.0000000000000000e+01  5.0000000000000000e+01  5.0000000000000000e+01  5.0000000000000000e+01  5.0000000000000000e+01  5.0000000000000000e+01  5.0000000000000000e+01  5.0000000000000000e+01  5.0000000000000000e+01  5.0000000000000000e+01  5.0000000000000000e+01  5.0000000000000000e+01  5.0000000000000000e+01  5.0000000000000000e+01  5.0000000000000000e+01  5.0000000000000000e+01  5.0000000000000000e+01  5.0000000000000000e+01  5.0000000000000000e+01  5.0000000000000000e+01  5.0000000000000000e+01  5.0000000000000000e+01  5.0000000000000000e+01  5.0000000000000000e+01  5.0000000000000000e+01  5.0000000000000000e+01  5.0000000000000000e+01  5.0000000000000000e+01  5.0000000000000000e+01  5.0000000000000000e+01  5.0000000000000000e+01  5.0000000000000000e+01  5.0000000000000000e+01  5.0000000000000000e+01  5.0000000000000000e+01  5.0000000000000000e+01  5.0000000000000000e+01  5.0000000000000000e+01  5.0000000000000000e+01  5.0000000000000000e+01  5.0000000000000000e+01  5.0000000000000000e+01  5.0000000000000000e+01  5.0000000000000000e+01  5.0000000000000000e+01  5.0000000000000000e+01  5.0000000000000000e+01  5.0000000000000000e+01  5.0000000000000000e+01  5.0000000000000000e+01  5.0000000000000000e+01  5.0000000000000000e+01  5.0000000000000000e+01  5.0000000000000000e+01  5.0000000000000000e+01  5.0000000000000000e+01  5.0000000000000000e+01  5.0000000000000000e+01  5.0000000000000000e+01  5.0000000000000000e+01  5.0000000000000000e+01  5.0000000000000000e+01  5.0000000000000000e+01  5.0000000000000000e+01  5.0000000000000000e+01  5.0000000000000000e+01  5.0000000000000000e+01  5.0000000000000000e+01  5.0000000000000000e+01  5.0000000000000000e+01  5.0000000000000000e+01  5.0000000000000000e+01  5.0000000000000000e+01  5.0000000000000000e+01  5.0000000000000000e+01  0.0000000000000000e+00  0.0000000000000000e+00  2.4972095953130253e+01  3.5197853783391736e+01  3.9676742714169990e+01  4.2091222191330786e+01  4.3577863687452293e+01  4.4576673503249197e+01  4.5289360547448219e+01  4.5820496799115851e+01  4.6229465302846556e+01  4.6552413279193644e+01  4.6812576832126474e+01  4.7025562305303922e+01  4.7202236135143842e+01  4.7350395751838029e+01  4.7475781079902269e+01  4.7582711098071158e+01  4.7674497981173218e+01  4.7753724407165087e+01  4.7822433973593661e+01  4.7882264884542558e+01  4.7934545678963801e+01  4.7980364998682425e+01  4.8020623250343583e+01  4.8056071414100821e+01  4.8087340580604277e+01  4.8114964701557490e+01  4.8139398306178705e+01  4.8161030437323085e+01  4.8180195716418410e+01  4.8197183204677970e+01  4.8212243556228565e+01  4.8225594835101198e+01  4.8237427277939588e+01  4.8247907217952609e+01  4.8257180336294347e+01  4.8265374370010150e+01  4.8272601377605234e+01  4.8278959641842512e+01  4.8284535272840635e+01  4.8289403561709172e+01  4.8293630124909321e+01  4.8297271871609667e+01  4.8300377820011413e+01  4.8302989783576621e+01  4.8305142944017419e+01  4.8306866324580760e+01  4.8308183174416456e+01  4.8309111272523346e+01  4.8309663157810547e+01  4.8309846290118166e+01  4.8309663145529861e+01  4.8309111247930311e+01  4.8308183137448367e+01  4.8306866275144642e+01  4.8305142881990825e+01  4.8302989708809100e+01  4.8300377732326638e+01  4.8297271770807392e+01  4.8293630010767757e+01  4.8289403433987836e+01  4.8284535131283363e+01  4.8278959486180959e+01  4.8272601207562111e+01  4.8265374185303109e+01  4.8257180136639960e+01  4.8247907003070466e+01  4.8237427047556551e+01  4.8225594588955175e+01  4.8212243294073431e+01  4.8197182926287716e+01  4.8180195421591144e+01  4.8161030125885240e+01  4.8139397977989205e+01  4.8114964356511301e+01  4.8087340218636108e+01  4.8056071035188239e+01  4.8020622854510009e+01  4.7980364585999681e+01  4.7934545249554006e+01  4.7882264438579604e+01  4.7822433511304510e+01  4.7753723928829913e+01  4.7674497487124960e+01  4.7582710588694738e+01  4.7475780555632454e+01  4.7350395213156659e+01  4.7202235582576044e+01  4.7025561739412801e+01  4.6812576253506457e+01  4.6552412688461729e+01  4.6229464700630025e+01  4.5820496186035761e+01  4.5289359924093411e+01  4.4576672870131851e+01  4.3577863044918153e+01  4.2091221539339344e+01  3.9676742051622114e+01  3.5197853105512557e+01  2.4972095238479913e+01  0.0000000000000000e+00  0.0000000000000000e+00  1.4690628147814802e+01  2.4888580367421888e+01  3.1117954547423373e+01  3.5019924948431623e+01  3.7610723777698333e+01  3.9425813376788831e+01  4.0754115649163118e+01  4.1760344709846009e+01  4.2543793010336863e+01  4.3167359806588081e+01  4.3672622564437134e+01  4.4088079156064012e+01  4.4433876555520925e+01  4.4724641895380586e+01  4.4971242152968472e+01  4.5181914518207826e+01  4.5363013865764863e+01  4.5519519869497103e+01  4.5655388980427325e+01  4.5773803753811237e+01  4.5877352722275745e+01  4.5968162322167622e+01  4.6047995112702857e+01  4.6118323903484495e+01  4.6180388401180174e+01  4.6235238995599801e+01  4.6283770963226786e+01  4.6326751446414193e+01  4.6364840926534782e+01  4.6398610457961468e+01  4.6428555607194518e+01  4.6455107808186348e+01  4.6478643674323280e+01  4.6499492681460659e+01  4.6517943542327572e+01  4.6534249521757452e+01  4.6548632888357410e+01  4.6561288656982867e+01  4.6572387744527099e+01  4.6582079636746762e+01  4.6590494644411748e+01  4.6597745811713501e+01  4.6603930527647471e+01  4.6609131881282956e+01  4.6613419793899006e+01  4.6616851954482215e+01  4.6619474579722457e+01  4.6621323015155774e+01  4.6622422190277909e+01  4.6622786937130250e+01  4.6622422178901239e+01  4.6621322992372939e+01  4.6619474545474645e+01  4.6616851908682264e+01  4.6613419736432199e+01  4.6609131812008435e+01  4.6603930446400121e+01  4.6597745718305731e+01  4.6590494538635831e+01  4.6582079518377412e+01  4.6572387613324437e+01  4.6561288512695370e+01  4.6548632730725132e+01  4.6534249350515751e+01  4.6517943357210527e+01  4.6499492482204722e+01  4.6478643460671478e+01  4.6455107579891667e+01  4.6428555364024071e+01  4.6398610199700265e+01  4.6364840652989500e+01  4.6326751157416595e+01  4.6283770658637323e+01  4.6235238675310711e+01  4.6180388065118144e+01  4.6118323551613351e+01  4.6047994745025754e+01  4.5968161938728414e+01  4.5877352323160231e+01  4.5773803339147435e+01  4.5655388550385602e+01  4.5519519424288987e+01  4.5363013405641269e+01  4.5181914043456260e+01  4.4971241663909247e+01  4.4724641392361889e+01  4.4433876038911833e+01  4.4088078626246222e+01  4.3672622021794233e+01  4.3167359251491334e+01  4.2543792443126208e+01  4.1760344130803780e+01  4.0754115058475335e+01  3.9425812774482452e+01  3.7610723163532292e+01  3.5019924321691768e+01  3.1117953906546465e+01  2.4888579709671337e+01  1.4690627473411224e+01  0.0000000000000000e+00  0.0000000000000000e+00  1.0156226475350254e+01  1.8548279063501116e+01  2.4750044131566060e+01  2.9184108091176704e+01  3.2382525221263940e+01  3.4743836031340365e+01  3.6532146990128062e+01  3.7918808076939889e+01  3.9016356016281229e+01  3.9900436271248132e+01  4.0623225937559660e+01  4.1221632336065205e+01  4.1722379295184844e+01  4.2145232663217740e+01  4.2505094629947742e+01  4.2813395495580053e+01  4.3079039117899988e+01  4.3309058436150842e+01  4.3509078631533633e+01  4.3683650095116619e+01  4.3836491639241274e+01  4.3970670763125703e+01  4.4088739071973315e+01  4.4192835274561219e+01  4.4284764422904757e+01  4.4366059523035524e+01  4.4438029911645600e+01  4.4501799589514512e+01  4.4558337855731097e+01  4.4608483983395935e+01  4.4652967242604142e+01  4.4692423259564251e+01  4.4727407467314272e+01  4.4758406229940995e+01  4.4785846091962235e+01  4.4810101505925772e+01  4.4831501316015888e+01  4.4850334217550312e+01  4.4866853367359226e+01  4.4881280284984690e+01  4.4893808157060853e+01  4.4904604635390420e+01  4.4913814201794096e+01  4.4921560158782682e+01  4.4927946293722428e+01  4.4933058254842102e+01  4.4936964669710932e+01  4.4939718030334305e+01  4.4941355363483829e+01  4.4941898700064307e+01  4.4941355353025926e+01  4.4939718009390404e+01  4.4936964638225220e+01  4.4933058212731673e+01  4.4927946240878185e+01  4.4921560095070774e+01  4.4913814127057371e+01  4.4904604549450525e+01  4.4893808059720129e+01  4.4881280176028795e+01  4.4866853246559749e+01  4.4850334084667516e+01  4.4831501170802014e+01  4.4810101348128001e+01  4.4785845921326427e+01  4.4758406046214844e+01  4.4727407270250851e+01  4.4692423048925690e+01  4.4652967018164908e+01  4.4608483744946462e+01  4.4558337603080950e+01  4.4501799322495636e+01  4.4438029630115096e+01  4.4366059226878221e+01  4.4284764112035582e+01  4.4192834948927100e+01  4.4088738731554393e+01  4.3970670407936190e+01  4.3836491269329819e+01  4.3683649710565589e+01  4.3509078232458130e+01  4.3309058022696384e+01  4.3079038690239386e+01  4.2813395053909169e+01  4.2505094174480021e+01  4.2145232194176877e+01  4.1722378812796073e+01  4.1221631840544049e+01  4.0623225429097921e+01  3.9900435749995964e+01  3.9016355482323966e+01  3.7918807530267330e+01  3.6532146430592285e+01  3.4743835458596962e+01  3.2382524634690149e+01  2.9184107489773524e+01  2.4750043513922993e+01  1.8548278428175426e+01  1.0156225822005645e+01  0.0000000000000000e+00  0.0000000000000000e+00  7.6865287581090715e+00  1.4535970009898342e+01  2.0150716216350087e+01  2.4557463201973516e+01  2.7969972599922244e+01  3.0621511435986690e+01  3.2704410682238390e+01  3.4362779839899879e+01  3.5701203092229164e+01  3.6795201019304514e+01  3.7699691549733608e+01  3.8455103701309561e+01  3.9091627934357028e+01  3.9632142200909669e+01  4.0094232623824176e+01  4.0491601874975053e+01  4.0835062661952364e+01  4.1133247807326867e+01  4.1393124585630879e+01  4.1620372185887128e+01  4.1819662234552382e+01  4.1994869786775801e+01  4.2149233826891930e+01  4.2285480669017495e+01  4.2405919788641292e+01  4.2512518947790518e+01  4.2606963610197873e+01  4.2690704322838194e+01  4.2764994796155214e+01  4.2830922733021922e+01  4.2889434958399306e+01  4.2941358034555527e+01  4.2987415273645688e+01  4.3028240854577163e+01  4.3064391596078124e+01  4.3096356819684054e+01  4.3124566645533406e+01  4.3149398993560958e+01  4.3171185507881660e+01  4.3190216579146472e+01  4.3206745605665112e+01  4.3220992607043719e+01  4.3233147282414883e+01  4.3243371587838759e+01  4.3251801893206604e+01  4.3258550767274151e+01  4.3263708429723351e+01  4.3267343900962089e+01  4.3269505873367216e+01  4.3270223321559492e+01  4.3269505863837367e+01  4.3267343881875298e+01  4.3263708401025639e+01  4.3258550728885346e+01  4.3251801845020978e+01  4.3243371529726907e+01  4.3233147214224758e+01  4.3220992528602530e+01  4.3206745516781403e+01  4.3190216479612403e+01  4.3171185397475526e+01  4.3149398872050085e+01  4.3124566512676644e+01  4.3096356675235278e+01  4.3064391439789183e+01  4.3028240686201173e+01  4.2987415092940047e+01  4.2941357841285594e+01  4.2889434752341351e+01  4.2830922513966193e+01  4.2764994563909077e+01  4.2690704077228709e+01  4.2606963351074327e+01  4.2512518675026485e+01  4.2405919502136619e+01  4.2285480368699496e+01  4.2149233512715966e+01  4.1994869458725702e+01  4.1819661892639779e+01  4.1620371830150241e+01  4.1393124216132250e+01  4.1133247424150376e+01  4.0835062265198637e+01  4.0491601464756279e+01  4.0094232200256847e+01  3.9632141764105924e+01  3.9091627484413976e+01  3.8455103238296125e+01  3.7699691073674238e+01  3.6795200530159157e+01  3.5701202589868217e+01  3.4362779324072910e+01  3.2704410152534692e+01  3.0621510891787675e+01  2.7969972040348690e+01  2.4557462625846849e+01  2.0150715622217952e+01  1.4535969396179567e+01  7.6865281231678493e+00  0.0000000000000000e+00  0.0000000000000000e+00  6.1450592320256670e+00  1.1835612251556798e+01  1.6788202976373395e+01  2.0926609792136350e+01  2.4312186886647023e+01  2.7061772267313991e+01  2.9297303032150694e+01  3.1124985864754944e+01  3.2630539465075010e+01  3.3880899733235147e+01  3.4927708395189015e+01  3.5810758381805918e+01  3.6560849746787866e+01  3.7201999300727437e+01  3.7753100367371630e+01  3.8229155437746115e+01  3.8642189859717497e+01  3.9001931252536252e+01  3.9316317748819436e+01  3.9591881051098461e+01  3.9834037529469526e+01  4.0047311335673896e+01  4.0235506882505405e+01  4.0401843308137472e+01  4.0549060165528388e+01  4.0679501152402665e+01  4.0795180947682397e+01  4.0897838949224194e+01  4.0988982777677379e+01  4.1069923725623006e+01  4.1141805821828271e+01  4.1205629799252378e+01  4.1262272968025265e+01  4.1312505776339378e+01  4.1357005675251678e+01  4.1396368774835985e+01  4.1431119679471841e+01  4.1461719812299677e+01  4.1488574477820357e+01  4.1512038863377839e+01  4.1532423141906776e+01  4.1549996807633761e+01  4.1564992351695565e+01  4.1577608364574658e+01  4.1588012135845929e+01  4.1596341808186160e+01  4.1602708131301931e+01  4.1607195851883731e+01  4.1609864767499900e+01  4.1610750465166362e+01  4.1609864758902667e+01  4.1607195834662569e+01  4.1602708105403657e+01  4.1596341773531726e+01  4.1588012092331226e+01  4.1577608312072016e+01  4.1564992290054867e+01  4.1549996736684470e+01  4.1532423061459660e+01  4.1512038773227410e+01  4.1488574377747085e+01  4.1461719702072742e+01  4.1431119558851954e+01  4.1396368643578128e+01  4.1357005533108300e+01  4.1312505623063359e+01  4.1262272803372916e+01  4.1205629622986706e+01  4.1141805633721837e+01  4.1069923525460744e+01  4.0988982565259420e+01  4.0897838724368349e+01  4.0795180710226020e+01  4.0679500902204779e+01  4.0549059902470887e+01  4.0401843032126010e+01  4.0235506593469616e+01  4.0047311033567205e+01  3.9834037214267823e+01  3.9591880722798251e+01  3.9316317407434788e+01  3.9001930898094997e+01  3.8642189492255902e+01  3.8229155057302322e+01  3.7753099973977648e+01  3.7201998894399040e+01  3.6560849327512749e+01  3.5810757949529169e+01  3.4927707949795646e+01  3.3880899274529092e+01  3.2630538992754083e+01  3.1124985378380714e+01  2.9297302531113552e+01  2.7061771750794410e+01  2.4312186353577580e+01  2.0926609241174440e+01  1.6788202405895071e+01  1.1835611659651219e+01  6.1450586163825687e+00  0.0000000000000000e+00  0.0000000000000000e+00  5.0919052326228558e+00  9.9119305534046021e+00  1.4264244145628272e+01  1.8058653718150172e+01  2.1292794935217930e+01  2.4015921172158436e+01  2.6297812608105612e+01  2.8209953113139388e+01  2.9816779685288076e+01  3.1172892828577115e+01  3.2323141111550974e+01  3.3303823573047481e+01  3.4144158697103805e+01  3.4867663224737655e+01  3.5493322699556089e+01  3.6036539312317778e+01  3.6509881605337803e+01  3.6923670927902243e+01  3.7286438336987636e+01  3.7605280605012915e+01  3.7886138348610778e+01  3.8134014226565554e+01  3.8353144997866551e+01  3.8547137963834423e+01  3.8719079808041634e+01  3.8871623941101447e+01  3.9007061016674243e+01  3.9127376197782716e+01  3.9234295931044791e+01  3.9329326364037982e+01  3.9413785067657976e+01  3.9488827363720937e+01  3.9555468280459650e+01  3.9614600944358131e+01  3.9667012050609557e+01  3.9713394924899191e+01  3.9754360587613853e+01  3.9790447151488394e+01  3.9822127820222960e+01  3.9849817705021252e+01  3.9873879635465741e+01  3.9894629108473183e+01  3.9912338492584404e+01  3.9927240583207933e+01  3.9939531586647583e+01  3.9949373595981434e+01  3.9956896609478825e+01  3.9962200131733780e+01  3.9965354388629095e+01  3.9966401179282286e+01  3.9965354380964875e+01  3.9962200116378447e+01  3.9956896586378960e+01  3.9949373565057599e+01  3.9939531547795291e+01  3.9927240536298761e+01  3.9912338437467334e+01  3.9894629044976476e+01  3.9873879563398788e+01  3.9849817624176708e+01  3.9822127730378938e+01  3.9790447052411444e+01  3.9754360479061383e+01  3.9713394806622254e+01  3.9667011922355897e+01  3.9614600805875092e+01  3.9555468131497115e+01  3.9488827204034379e+01  3.9413784897011034e+01  3.9329326182205570e+01  3.9234295737815351e+01  3.9127375992960488e+01  3.9007060800081298e+01  3.8871623712579158e+01  3.8719079567451772e+01  3.8547137711059669e+01  3.8353144732810513e+01  3.8134013949151878e+01  3.7886138058781704e+01  3.7605280302726626e+01  3.7286438022214980e+01  3.6923670600621840e+01  3.6509881265530481e+01  3.6036538959959060e+01  3.5493322334607321e+01  3.4867662847135392e+01  3.4144158306746895e+01  3.3303823169781964e+01  3.2323140695152105e+01  3.1172892398728475e+01  2.9816779241557132e+01  2.8209952654949273e+01  2.6297812134704248e+01  2.4015920682584774e+01  2.1292794428269094e+01  1.8058653192351176e+01  1.4264243599201681e+01  9.9119299842217110e+00  5.0919046380990505e+00  0.0000000000000000e+00  0.0000000000000000e+00  4.3254489295325929e+00  8.4761850063844619e+00  1.2315005841816491e+01  1.5761626702260765e+01  1.8790311808391323e+01  2.1414718803375745e+01  2.3670707827878342e+01  2.5603036468317349e+01  2.7257134859237819e+01  2.8674904629474820e+01  2.9893067826765392e+01  3.0942907265071806e+01  3.1850664152439226e+01  3.2638183192710358e+01  3.3323598508671346e+01  3.3921967833266287e+01  3.4445821659579607e+01  3.4905622517221175e+01  3.5310141818271646e+01  3.5666765920370608e+01  3.5981743497427907e+01  3.6260385180206292e+01  3.6507224793822310e+01  3.6726149861956365e+01  3.6920507564720651e+01  3.7093191087380561e+01  3.7246710277531726e+01  3.7383249711824980e+01  3.7504716626350003e+01  3.7612780655043125e+01  3.7708906919882516e+01  3.7794383701929668e+01  3.7870345674801932e+01  3.7937793487155787e+01  3.7997610326682270e+01  3.8050575975978624e+01  3.8097378773496722e+01  3.8138625815168204e+01  3.8174851670077182e+01  3.8206525833429815e+01  3.8234059099511711e+01  3.8257809004344217e+01  3.8278084460782502e+01  3.8295149686616099e+01  3.8309227507853066e+01  3.8320502104019930e+01  3.8329121249358437e+01  3.8335198092740626e+01  3.8338812509538528e+01  3.8340012050219570e+01  3.8338812502803918e+01  3.8335198079243980e+01  3.8329121229045064e+01  3.8320502076808701e+01  3.8309227473636980e+01  3.8295149645263663e+01  3.8278084412138980e+01  3.8257808948233553e+01  3.8234059035738262e+01  3.8206525761780405e+01  3.8174851590323591e+01  3.8138625727069709e+01  3.8097378676802720e+01  3.8050575870431373e+01  3.7997610212019865e+01  3.7937793363115055e+01  3.7870345541121267e+01  3.7794383558352045e+01  3.7708906766158144e+01  3.7612780490932295e+01  3.7504716451625363e+01  3.7383249526273701e+01  3.7246710080957314e+01  3.7093190879604371e+01  3.6920507345582621e+01  3.6726149631315472e+01  3.6507224551556313e+01  3.6260384926210541e+01  3.5981743231613656e+01  3.5666765642662064e+01  3.5310141528602188e+01  3.4905622215528204e+01  3.4445821345798358e+01  3.3921967507321938e+01  3.3323598170469801e+01  3.2638182842126994e+01  3.1850663789305774e+01  3.0942906889160916e+01  2.9893067437772917e+01  2.8674904226999306e+01  2.7257134442757323e+01  2.5603036037163342e+01  2.3670707381207450e+01  2.1414718340139508e+01  1.8790311327305233e+01  1.5761626201771987e+01  1.2315005320066870e+01  8.4761844611606350e+00  4.3254483581932659e+00  0.0000000000000000e+00  0.0000000000000000e+00  3.7412064027689746e+00  7.3638374565570839e+00  1.0769401635537037e+01  1.3891769914232416e+01  1.6698967994866653e+01  1.9187204196085208e+01  2.1371838830223371e+01  2.3278899660061931e+01  2.4938746904432580e+01  2.6382039246149173e+01  2.7637512130520943e+01  2.8730968889462012e+01  2.9684995549561279e+01  3.0519064139551681e+01  3.1249817731963272e+01  3.1891419435245165e+01  3.2455903297648561e+01  3.2953497718445121e+01  3.3392910020287893e+01  3.3781570244157429e+01  3.4125836729281502e