<?xml version="1.0"?>
<VTKFile type="UnstructuredGrid"  version="0.1"  >
<UnstructuredGrid>
<Piece  NumberOfPoints="10201" NumberOfCells="20000">
<Points>
<DataArray  type="Float64"  NumberOfComponents="3"  format="ascii">0 0 0  0.01 0 0  0.02 0 0  0.03 0 0  0.04 0 0  0.05 0 0  0.06 0 0  0.07000000000000001 0 0  0.08 0 0  0.09 0 0  0.1 0 0  0.11 0 0  0.12 0 0  0.13 0 0  0.14 0 0  0.15 0 0  0.16 0 0  0.17 0 0  0.18 0 0  0.19 0 0  0.2 0 0  0.21 0 0  0.22 0 0  0.23 0 0  0.24 0 0  0.25 0 0  0.26 0 0  0.27 0 0  0.28 0 0  0.29 0 0  0.3 0 0  0.31 0 0  0.32 0 0  0.33 0 0  0.34 0 0  0.35 0 0  0.36 0 0  0.37 0 0  0.38 0 0  0.39 0 0  0.4 0 0  0.41 0 0  0.42 0 0  0.43 0 0  0.44 0 0  0.45 0 0  0.46 0 0  0.47 0 0  0.48 0 0  0.49 0 0  0.5 0 0  0.51 0 0  0.52 0 0  0.53 0 0  0.54 0 0  0.55 0 0  0.5600000000000001 0 0  0.57 0 0  0.58 0 0  0.59 0 0  0.6 0 0  0.61 0 0  0.62 0 0  0.63 0 0  0.64 0 0  0.65 0 0  0.66 0 0  0.67 0 0  0.68 0 0  0.6899999999999999 0 0  0.7 0 0  0.71 0 0  0.72 0 0  0.73 0 0  0.74 0 0  0.75 0 0  0.76 0 0  0.77 0 0  0.78 0 0  0.79 0 0  0.8 0 0  0.8100000000000001 0 0  0.82 0 0  0.83 0 0  0.84 0 0  0.85 0 0  0.86 0 0  0.87 0 0  0.88 0 0  0.89 0 0  0.9 0 0  0.91 0 0  0.92 0 0  0.93 0 0  0.9399999999999999 0 0  0.95 0 0  0.96 0 0  0.97 0 0  0.98 0 0  0.99 0 0  1 0 0  0 0.01 0  0.01 0.01 0  0.02 0.01 0  0.03 0.01 0  0.04 0.01 0  0.05 0.01 0  0.06 0.01 0  0.07000000000000001 0.01 0  0.08 0.01 0  0.09 0.01 0  0.1 0.01 0  0.11 0.01 0  0.12 0.01 0  0.13 0.01 0  0.14 0.01 0  0.15 0.01 0  0.16 0.01 0  0.17 0.01 0  0.18 0.01 0  0.19 0.01 0  0.2 0.01 0  0.21 0.01 0  0.22 0.01 0  0.23 0.01 0  0.24 0.01 0  0.25 0.01 0  0.26 0.01 0  0.27 0.01 0  0.28 0.01 0  0.29 0.01 0  0.3 0.01 0  0.31 0.01 0  0.32 0.01 0  0.33 0.01 0  0.34 0.01 0  0.35 0.01 0  0.36 0.01 0  0.37 0.01 0  0.38 0.01 0  0.39 0.01 0  0.4 0.01 0  0.41 0.01 0  0.42 0.01 0  0.43 0.01 0  0.44 0.01 0  0.45 0.01 0  0.46 0.01 0  0.47 0.01 0  0.48 0.01 0  0.49 0.01 0  0.5 0.01 0  0.51 0.01 0  0.52 0.01 0  0.53 0.01 0  0.54 0.01 0  0.55 0.01 0  0.5600000000000001 0.01 0  0.57 0.01 0  0.58 0.01 0  0.59 0.01 0  0.6 0.01 0  0.61 0.01 0  0.62 0.01 0  0.63 0.01 0  0.64 0.01 0  0.65 0.01 0  0.66 0.01 0  0.67 0.01 0  0.68 0.01 0  0.6899999999999999 0.01 0  0.7 0.01 0  0.71 0.01 0  0.72 0.01 0  0.73 0.01 0  0.74 0.01 0  0.75 0.01 0  0.76 0.01 0  0.77 0.01 0  0.78 0.01 0  0.79 0.01 0  0.8 0.01 0  0.8100000000000001 0.01 0  0.82 0.01 0  0.83 0.01 0  0.84 0.01 0  0.85 0.01 0  0.86 0.01 0  0.87 0.01 0  0.88 0.01 0  0.89 0.01 0  0.9 0.01 0  0.91 0.01 0  0.92 0.01 0  0.93 0.01 0  0.9399999999999999 0.01 0  0.95 0.01 0  0.96 0.01 0  0.97 0.01 0  0.98 0.01 0  0.99 0.01 0  1 0.01 0  0 0.02 0  0.01 0.02 0  0.02 0.02 0  0.03 0.02 0  0.04 0.02 0  0.05 0.02 0  0.06 0.02 0  0.07000000000000001 0.02 0  0.08 0.02 0  0.09 0.02 0  0.1 0.02 0  0.11 0.02 0  0.12 0.02 0  0.13 0.02 0  0.14 0.02 0  0.15 0.02 0  0.16 0.02 0  0.17 0.02 0  0.18 0.02 0  0.19 0.02 0  0.2 0.02 0  0.21 0.02 0  0.22 0.02 0  0.23 0.02 0  0.24 0.02 0  0.25 0.02 0  0.26 0.02 0  0.27 0.02 0  0.28 0.02 0  0.29 0.02 0  0.3 0.02 0  0.31 0.02 0  0.32 0.02 0  0.33 0.02 0  0.34 0.02 0  0.35 0.02 0  0.36 0.02 0  0.37 0.02 0  0.38 0.02 0  0.39 0.02 0  0.4 0.02 0  0.41 0.02 0  0.42 0.02 0  0.43 0.02 0  0.44 0.02 0  0.45 0.02 0  0.46 0.02 0  0.47 0.02 0  0.48 0.02 0  0.49 0.02 0  0.5 0.02 0  0.51 0.02 0  0.52 0.02 0  0.53 0.02 0  0.54 0.02 0  0.55 0.02 0  0.5600000000000001 0.02 0  0.57 0.02 0  0.58 0.02 0  0.59 0.02 0  0.6 0.02 0  0.61 0.02 0  0.62 0.02 0  0.63 0.02 0  0.64 0.02 0  0.65 0.02 0  0.66 0.02 0  0.67 0.02 0  0.68 0.02 0  0.6899999999999999 0.02 0  0.7 0.02 0  0.71 0.02 0  0.72 0.02 0  0.73 0.02 0  0.74 0.02 0  0.75 0.02 0  0.76 0.02 0  0.77 0.02 0  0.78 0.02 0  0.79 0.02 0  0.8 0.02 0  0.8100000000000001 0.02 0  0.82 0.02 0  0.83 0.02 0  0.84 0.02 0  0.85 0.02 0  0.86 0.02 0  0.87 0.02 0  0.88 0.02 0  0.89 0.02 0  0.9 0.02 0  0.91 0.02 0  0.92 0.02 0  0.93 0.02 0  0.9399999999999999 0.02 0  0.95 0.02 0  0.96 0.02 0  0.97 0.02 0  0.98 0.02 0  0.99 0.02 0  1 0.02 0  0 0.03 0  0.01 0.03 0  0.02 0.03 0  0.03 0.03 0  0.04 0.03 0  0.05 0.03 0  0.06 0.03 0  0.07000000000000001 0.03 0  0.08 0.03 0  0.09 0.03 0  0.1 0.03 0  0.11 0.03 0  0.12 0.03 0  0.13 0.03 0  0.14 0.03 0  0.15 0.03 0  0.16 0.03 0  0.17 0.03 0  0.18 0.03 0  0.19 0.03 0  0.2 0.03 0  0.21 0.03 0  0.22 0.03 0  0.23 0.03 0  0.24 0.03 0  0.25 0.03 0  0.26 0.03 0  0.27 0.03 0  0.28 0.03 0  0.29 0.03 0  0.3 0.03 0  0.31 0.03 0  0.32 0.03 0  0.33 0.03 0  0.34 0.03 0  0.35 0.03 0  0.36 0.03 0  0.37 0.03 0  0.38 0.03 0  0.39 0.03 0  0.4 0.03 0  0.41 0.03 0  0.42 0.03 0  0.43 0.03 0  0.44 0.03 0  0.45 0.03 0  0.46 0.03 0  0.47 0.03 0  0.48 0.03 0  0.49 0.03 0  0.5 0.03 0  0.51 0.03 0  0.52 0.03 0  0.53 0.03 0  0.54 0.03 0  0.55 0.03 0  0.5600000000000001 0.03 0  0.57 0.03 0  0.58 0.03 0  0.59 0.03 0  0.6 0.03 0  0.61 0.03 0  0.62 0.03 0  0.63 0.03 0  0.64 0.03 0  0.65 0.03 0  0.66 0.03 0  0.67 0.03 0  0.68 0.03 0  0.6899999999999999 0.03 0  0.7 0.03 0  0.71 0.03 0  0.72 0.03 0  0.73 0.03 0  0.74 0.03 0  0.75 0.03 0  0.76 0.03 0  0.77 0.03 0  0.78 0.03 0  0.79 0.03 0  0.8 0.03 0  0.8100000000000001 0.03 0  0.82 0.03 0  0.83 0.03 0  0.84 0.03 0  0.85 0.03 0  0.86 0.03 0  0.87 0.03 0  0.88 0.03 0  0.89 0.03 0  0.9 0.03 0  0.91 0.03 0  0.92 0.03 0  0.93 0.03 0  0.9399999999999999 0.03 0  0.95 0.03 0  0.96 0.03 0  0.97 0.03 0  0.98 0.03 0  0.99 0.03 0  1 0.03 0  0 0.04 0  0.01 0.04 0  0.02 0.04 0  0.03 0.04 0  0.04 0.04 0  0.05 0.04 0  0.06 0.04 0  0.07000000000000001 0.04 0  0.08 0.04 0  0.09 0.04 0  0.1 0.04 0  0.11 0.04 0  0.12 0.04 0  0.13 0.04 0  0.14 0.04 0  0.15 0.04 0  0.16 0.04 0  0.17 0.04 0  0.18 0.04 0  0.19 0.04 0  0.2 0.04 0  0.21 0.04 0  0.22 0.04 0  0.23 0.04 0  0.24 0.04 0  0.25 0.04 0  0.26 0.04 0  0.27 0.04 0  0.28 0.04 0  0.29 0.04 0  0.3 0.04 0  0.31 0.04 0  0.32 0.04 0  0.33 0.04 0  0.34 0.04 0  0.35 0.04 0  0.36 0.04 0  0.37 0.04 0  0.38 0.04 0  0.39 0.04 0  0.4 0.04 0  0.41 0.04 0  0.42 0.04 0  0.43 0.04 0  0.44 0.04 0  0.45 0.04 0  0.46 0.04 0  0.47 0.04 0  0.48 0.04 0  0.49 0.04 0  0.5 0.04 0  0.51 0.04 0  0.52 0.04 0  0.53 0.04 0  0.54 0.04 0  0.55 0.04 0  0.5600000000000001 0.04 0  0.57 0.04 0  0.58 0.04 0  0.59 0.04 0  0.6 0.04 0  0.61 0.04 0  0.62 0.04 0  0.63 0.04 0  0.64 0.04 0  0.65 0.04 0  0.66 0.04 0  0.67 0.04 0  0.68 0.04 0  0.6899999999999999 0.04 0  0.7 0.04 0  0.71 0.04 0  0.72 0.04 0  0.73 0.04 0  0.74 0.04 0  0.75 0.04 0  0.76 0.04 0  0.77 0.04 0  0.78 0.04 0  0.79 0.04 0  0.8 0.04 0  0.8100000000000001 0.04 0  0.82 0.04 0  0.83 0.04 0  0.84 0.04 0  0.85 0.04 0  0.86 0.04 0  0.87 0.04 0  0.88 0.04 0  0.89 0.04 0  0.9 0.04 0  0.91 0.04 0  0.92 0.04 0  0.93 0.04 0  0.9399999999999999 0.04 0  0.95 0.04 0  0.96 0.04 0  0.97 0.04 0  0.98 0.04 0  0.99 0.04 0  1 0.04 0  0 0.05 0  0.01 0.05 0  0.02 0.05 0  0.03 0.05 0  0.04 0.05 0  0.05 0.05 0  0.06 0.05 0  0.07000000000000001 0.05 0  0.08 0.05 0  0.09 0.05 0  0.1 0.05 0  0.11 0.05 0  0.12 0.05 0  0.13 0.05 0  0.14 0.05 0  0.15 0.05 0  0.16 0.05 0  0.17 0.05 0  0.18 0.05 0  0.19 0.05 0  0.2 0.05 0  0.21 0.05 0  0.22 0.05 0  0.23 0.05 0  0.24 0.05 0  0.25 0.05 0  0.26 0.05 0  0.27 0.05 0  0.28 0.05 0  0.29 0.05 0  0.3 0.05 0  0.31 0.05 0  0.32 0.05 0  0.33 0.05 0  0.34 0.05 0  0.35 0.05 0  0.36 0.05 0  0.37 0.05 0  0.38 0.05 0  0.39 0.05 0  0.4 0.05 0  0.41 0.05 0  0.42 0.05 0  0.43 0.05 0  0.44 0.05 0  0.45 0.05 0  0.46 0.05 0  0.47 0.05 0  0.48 0.05 0  0.49 0.05 0  0.5 0.05 0  0.51 0.05 0  0.52 0.05 0  0.53 0.05 0  0.54 0.05 0  0.55 0.05 0  0.5600000000000001 0.05 0  0.57 0.05 0  0.58 0.05 0  0.59 0.05 0  0.6 0.05 0  0.61 0.05 0  0.62 0.05 0  0.63 0.05 0  0.64 0.05 0  0.65 0.05 0  0.66 0.05 0  0.67 0.05 0  0.68 0.05 0  0.6899999999999999 0.05 0  0.7 0.05 0  0.71 0.05 0  0.72 0.05 0  0.73 0.05 0  0.74 0.05 0  0.75 0.05 0  0.76 0.05 0  0.77 0.05 0  0.78 0.05 0  0.79 0.05 0  0.8 0.05 0  0.8100000000000001 0.05 0  0.82 0.05 0  0.83 0.05 0  0.84 0.05 0  0.85 0.05 0  0.86 0.05 0  0.87 0.05 0  0.88 0.05 0  0.89 0.05 0  0.9 0.05 0  0.91 0.05 0  0.92 0.05 0  0.93 0.05 0  0.9399999999999999 0.05 0  0.95 0.05 0  0.96 0.05 0  0.97 0.05 0  0.98 0.05 0  0.99 0.05 0  1 0.05 0  0 0.06 0  0.01 0.06 0  0.02 0.06 0  0.03 0.06 0  0.04 0.06 0  0.05 0.06 0  0.06 0.06 0  0.07000000000000001 0.06 0  0.08 0.06 0  0.09 0.06 0  0.1 0.06 0  0.11 0.06 0  0.12 0.06 0  0.13 0.06 0  0.14 0.06 0  0.15 0.06 0  0.16 0.06 0  0.17 0.06 0  0.18 0.06 0  0.19 0.06 0  0.2 0.06 0  0.21 0.06 0  0.22 0.06 0  0.23 0.06 0  0.24 0.06 0  0.25 0.06 0  0.26 0.06 0  0.27 0.06 0  0.28 0.06 0  0.29 0.06 0  0.3 0.06 0  0.31 0.06 0  0.32 0.06 0  0.33 0.06 0  0.34 0.06 0  0.35 0.06 0  0.36 0.06 0  0.37 0.06 0  0.38 0.06 0  0.39 0.06 0  0.4 0.06 0  0.41 0.06 0  0.42 0.06 0  0.43 0.06 0  0.44 0.06 0  0.45 0.06 0  0.46 0.06 0  0.47 0.06 0  0.48 0.06 0  0.49 0.06 0  0.5 0.06 0  0.51 0.06 0  0.52 0.06 0  0.53 0.06 0  0.54 0.06 0  0.55 0.06 0  0.5600000000000001 0.06 0  0.57 0.06 0  0.58 0.06 0  0.59 0.06 0  0.6 0.06 0  0.61 0.06 0  0.62 0.06 0  0.63 0.06 0  0.64 0.06 0  0.65 0.06 0  0.66 0.06 0  0.67 0.06 0  0.68 0.06 0  0.6899999999999999 0.06 0  0.7 0.06 0  0.71 0.06 0  0.72 0.06 0  0.73 0.06 0  0.74 0.06 0  0.75 0.06 0  0.76 0.06 0  0.77 0.06 0  0.78 0.06 0  0.79 0.06 0  0.8 0.06 0  0.8100000000000001 0.06 0  0.82 0.06 0  0.83 0.06 0  0.84 0.06 0  0.85 0.06 0  0.86 0.06 0  0.87 0.06 0  0.88 0.06 0  0.89 0.06 0  0.9 0.06 0  0.91 0.06 0  0.92 0.06 0  0.93 0.06 0  0.9399999999999999 0.06 0  0.95 0.06 0  0.96 0.06 0  0.97 0.06 0  0.98 0.06 0  0.99 0.06 0  1 0.06 0  0 0.07000000000000001 0  0.01 0.07000000000000001 0  0.02 0.07000000000000001 0  0.03 0.07000000000000001 0  0.04 0.07000000000000001 0  0.05 0.07000000000000001 0  0.06 0.07000000000000001 0  0.07000000000000001 0.07000000000000001 0  0.08 0.07000000000000001 0  0.09 0.07000000000000001 0  0.1 0.07000000000000001 0  0.11 0.07000000000000001 0  0.12 0.07000000000000001 0  0.13 0.07000000000000001 0  0.14 0.07000000000000001 0  0.15 0.07000000000000001 0  0.16 0.07000000000000001 0  0.17 0.0700
[...]
<PointData  Scalars="f_17"> 
<DataArray  type="Float64"  Name="f_17"  format="ascii">0.0000000000000000e+00  5.0000000000000000e+01  5.0000000000000000e+01  5.0000000000000000e+01  5.0000000000000000e+01  5.0000000000000000e+01  5.0000000000000000e+01  5.0000000000000000e+01  5.0000000000000000e+01  5.0000000000000000e+01  5.0000000000000000e+01  5.0000000000000000e+01  5.0000000000000000e+01  5.0000000000000000e+01  5.0000000000000000e+01  5.0000000000000000e+01  5.0000000000000000e+01  5.0000000000000000e+01  5.0000000000000000e+01  5.0000000000000000e+01  5.0000000000000000e+01  5.0000000000000000e+01  5.0000000000000000e+01  5.0000000000000000e+01  5.0000000000000000e+01  5.0000000000000000e+01  5.0000000000000000e+01  5.0000000000000000e+01  5.0000000000000000e+01  5.0000000000000000e+01  5.0000000000000000e+01  5.0000000000000000e+01  5.0000000000000000e+01  5.0000000000000000e+01  5.0000000000000000e+01  5.0000000000000000e+01  5.0000000000000000e+01  5.0000000000000000e+01  5.0000000000000000e+01  5.0000000000000000e+01  5.0000000000000000e+01  5.0000000000000000e+01  5.0000000000000000e+01  5.0000000000000000e+01  5.0000000000000000e+01  5.0000000000000000e+01  5.0000000000000000e+01  5.0000000000000000e+01  5.0000000000000000e+01  5.0000000000000000e+01  5.0000000000000000e+01  5.0000000000000000e+01  5.0000000000000000e+01  5.0000000000000000e+01  5.0000000000000000e+01  5.0000000000000000e+01  5.0000000000000000e+01  5.0000000000000000e+01  5.0000000000000000e+01  5.0000000000000000e+01  5.0000000000000000e+01  5.0000000000000000e+01  5.0000000000000000e+01  5.0000000000000000e+01  5.0000000000000000e+01  5.0000000000000000e+01  5.0000000000000000e+01  5.0000000000000000e+01  5.0000000000000000e+01  5.0000000000000000e+01  5.0000000000000000e+01  5.0000000000000000e+01  5.0000000000000000e+01  5.0000000000000000e+01  5.0000000000000000e+01  5.0000000000000000e+01  5.0000000000000000e+01  5.0000000000000000e+01  5.0000000000000000e+01  5.0000000000000000e+01  5.0000000000000000e+01  5.0000000000000000e+01  5.0000000000000000e+01  5.0000000000000000e+01  5.0000000000000000e+01  5.0000000000000000e+01  5.0000000000000000e+01  5.0000000000000000e+01  5.0000000000000000e+01  5.0000000000000000e+01  5.0000000000000000e+01  5.0000000000000000e+01  5.0000000000000000e+01  5.0000000000000000e+01  5.0000000000000000e+01  5.0000000000000000e+01  5.0000000000000000e+01  5.0000000000000000e+01  5.0000000000000000e+01  5.0000000000000000e+01  0.0000000000000000e+00  0.0000000000000000e+00  2.4935394542337125e+01  3.5124558946427683e+01  3.9567072726913970e+01  4.1945501786525632e+01  4.3396520994133823e+01  4.4360236015031909e+01  4.5038450206697604e+01  4.5535824282234749e+01  4.5911823600987788e+01  4.6202670677656599e+01  4.6431669398633815e+01  4.6614486001870077e+01  4.6762038670257354e+01  4.6882168289218349e+01  4.6980649917284232e+01  4.7061829424499983e+01  4.7129037814404384e+01  4.7184868804234753e+01  4.7231369597770154e+01  4.7270175001017442e+01  4.7302603640122406e+01  4.7329728267941249e+01  4.7352428001662282e+01  4.7371427732660436e+01  4.7387328279040609e+01  4.7400629755771519e+01  4.7411749905288389e+01  4.7421038633907422e+01  4.7428789655930551e+01  4.7435249906819507e+01  4.7440627216197782e+01  4.7445096608934939e+01  4.7448805513611902e+01  4.7451878092402112e+01  4.7454418858032973e+01  4.7456515707308448e+01  4.7458242473344519e+01  4.7459661077841005e+01  4.7460823348683128e+01  4.7461772555710780e+01  4.7462544707713199e+01  4.7463169645940852e+01  4.7463671963187245e+01  4.7464071772414712e+01  4.7464385344705789e+01  4.7464625632808506e+01  4.7464802693547902e+01  4.7464924019781229e+01  4.7464994790274808e+01  4.7465018043811348e+01  4.7464994781923984e+01  4.7464924002854126e+01  4.7464802667591279e+01  4.7464625597136681e+01  4.7464385298393651e+01  4.7464071714288949e+01  4.7463671891815913e+01  4.7463169559621662e+01  4.7462544604460781e+01  4.7461772433243887e+01  4.7460823204411916e+01  4.7459660908855625e+01  4.7458242276404881e+01  4.7456515478837161e+01  4.7454418594111303e+01  4.7451877788770403e+01  4.7448805165675452e+01  4.7445096211775528e+01  4.7440626764592885e+01  4.7435249395268947e+01  4.7428789078691537e+01  4.7421037985038815e+01  4.7411749178704525e+01  4.7400628945305009e+01  4.7387327378514762e+01  4.7371426735970061e+01  4.7352426902862412e+01  4.7329727061342744e+01  4.7302602320391983e+01  4.7270173563280615e+01  4.7231368037715285e+01  4.7184867118214008e+01  4.7129035999529066e+01  4.7061827478727331e+01  4.6980647839490970e+01  4.6882166079257303e+01  4.6762036328992906e+01  4.6614483531187247e+01  4.6431666801415410e+01  4.6202667957721971e+01  4.5911820762982565e+01  4.5535821331457008e+01  4.5038447148829647e+01  4.4360232855713946e+01  4.3396517738212573e+01  4.1945498436476235e+01  3.9567069278586260e+01  3.5124555373766583e+01  2.4935390724600907e+01  0.0000000000000000e+00  0.0000000000000000e+00  1.4617552174182253e+01  2.4742645147059918e+01  3.0899594436823900e+01  3.4729786275957707e+01  3.7249658686478163e+01  3.8994871791558971e+01  4.0254535492820722e+01  4.1193540532015142e+01  4.1911343214248227e+01  4.2470992679390775e+01  4.2914201330073681e+01  4.3269586278880176e+01  4.3557397526800365e+01  4.3792348734090417e+01  4.3985376846426838e+01  4.4144772618509329e+01  4.4276928444104826e+01  4.4386846013580076e+01  4.4478489000550518e+01  4.4555033241631286e+01  4.4619047583363390e+01  4.4672626879878678e+01  4.4717491357268116e+01  4.4755061937111677e+01  4.4786518107876667e+01  4.4812842943799346e+01  4.4834858530482677e+01  4.4853254138683468e+01  4.4868608850096855e+01  4.4881409889904525e+01  4.4892067600686943e+01  4.4900927761393717e+01  4.4908281786737241e+01  4.4914375218429257e+01  4.4919414827531391e+01  4.4923574578053710e+01  4.4927000649578439e+01  4.4929815676685116e+01  4.4932122332099887e+01  4.4934006356460152e+01  4.4935539118681739e+01  4.4936779775872857e+01  4.4937777089629179e+01  4.4938570945670044e+01  4.4939193615606627e+01  4.4939670792775296e+01  4.4940022428212188e+01  4.4940263387761718e+01  4.4940403946801254e+01  4.4940450134999075e+01  4.4940403939761538e+01  4.4940263373484932e+01  4.4940022406301381e+01  4.4939670762629603e+01  4.4939193576414887e+01  4.4938570896402041e+01  4.4937777029026300e+01  4.4936779702436738e+01  4.4935539030662113e+01  4.4934006251842597e+01  4.4932122208593796e+01  4.4929815531712343e+01  4.4927000480263402e+01  4.4923574381215992e+01  4.4919414599681062e+01  4.4914374955766839e+01  4.4908281485157751e+01  4.4900927416496387e+01  4.4892067207791975e+01  4.4881409444076432e+01  4.4868608346175620e+01  4.4853253571324068e+01  4.4834857894203061e+01  4.4812842233036676e+01  4.4786517317051839e+01  4.4755061060701166e+01  4.4717490389882691e+01  4.4672625816346773e+01  4.4619046418818137e+01  4.4555031971598034e+01  4.4478487621033345e+01  4.4386844521143047e+01  4.4276926835944835e+01  4.4144770892516497e+01  4.3985375001228405e+01  4.3792346769072523e+01  4.3557395442102425e+01  4.3269584075355780e+01  4.2914199009209803e+01  4.2470990243175173e+01  4.1911340664970176e+01  4.1193537871976957e+01  4.0254532723919063e+01  3.8994868914658390e+01  3.7249655700420021e+01  3.4729783175880236e+01  3.0899591211282686e+01  2.4742641774971908e+01  1.4617548645194585e+01  0.0000000000000000e+00  0.0000000000000000e+00  1.0047427751711314e+01  1.8331004911459811e+01  2.4424940868822652e+01  2.8752137445636485e+01  3.1844955184853880e+01  3.4102228911127412e+01  3.5788344857196300e+01  3.7074915854135973e+01  3.8074722481283111e+01  3.8863633279667134e+01  3.9494026191750741e+01  4.0002986038821412e+01  4.0417390033498066e+01  4.0757132865973247e+01  4.1037220935157485e+01  4.1269164348104347e+01  4.1461922898273272e+01  4.1622562395945039e+01  4.1756718881584504e+01  4.1868932860873713e+01  4.1962893963468282e+01  4.2041622801142061e+01  4.2107608089511530e+01  4.2162911423963195e+01  4.2209248340547866e+01  4.2248051760208206e+01  4.2280522183105667e+01  4.2307667799061697e+01  4.2330336836583513e+01  4.2349243873133190e+01  4.2364991397974279e+01  4.2378087605491913e+01  4.2388961166847743e+01  4.2397973557427150e+01  4.2405429390160272e+01  4.2411585108754785e+01  4.2416656321827062e+01  4.2420824002865004e+01  4.2424239737555716e+01  4.2427030166086581e+01  4.2429300741240567e+01  4.2431138901723209e+01  4.2432616742885216e+01  4.2433793252872682e+01  4.2434716170510121e+01  4.2435423511343579e+01  4.2435944799815452e+01  4.2436302038169600e+01  4.2436510436145355e+01  4.2436578919592350e+01  4.2436510430658707e+01  4.2436302027028830e+01  4.2435944782683272e+01  4.2435423487708711e+01  4.2434716139680809e+01  4.2433793213968620e+01  4.2432616694827381e+01  4.2431138843223088e+01  4.2429300670787732e+01  4.2427030081936124e+01  4.2424239637715779e+01  4.2420823885084410e+01  4.2416656183584870e+01  4.2411584947251185e+01  4.2405429202310636e+01  4.2397973339859341e+01  4.2388960915903887e+01  4.2378087317235462e+01  4.2364991068202798e+01  4.2349243497397858e+01  4.2330336410216205e+01  4.2307667317209152e+01  4.2280521640772186e+01  4.2248051152305720e+01  4.2209247661953910e+01  4.2162910669585550e+01  4.2107607254358541e+01  4.2041621880397521e+01  4.1962892952568211e+01  4.1868931755583077e+01  4.1756717678070977e+01  4.1622561090845927e+01  4.1461921488751635e+01  4.1269162831890434e+01  4.1037219310569995e+01  4.0757131131914512e+01  4.0417388189417437e+01  4.0002984084638882e+01  3.9494024127731812e+01  3.8863631106237719e+01  3.8074720198768759e+01  3.7074913462403060e+01  3.5788342355161944e+01  3.4102226296089512e+01  3.1844952451580369e+01  2.8752134585205564e+01  2.4424937867579409e+01  1.8331001751916258e+01  1.0047424417163011e+01  0.0000000000000000e+00  0.0000000000000000e+00  7.5429718940241344e+00  1.4249283049759773e+01  1.9721751278713437e+01  2.3987488254470456e+01  2.7260659412986616e+01  2.9774919841958997e+01  3.1722969405087401e+01  3.3249264213821306e+01  3.4458710033163982e+01  3.5427121650505221e+01  3.6209681910136382e+01  3.6847053983289790e+01  3.7369630705397299e+01  3.7800460062022793e+01  3.8157265746738602e+01  3.8453855840841001e+01  3.8701116997597275e+01  3.8907725581976592e+01  3.9080663392724986e+01  3.9225596792433592e+01  3.9347159135681885e+01  3.9449163857046848e+01  3.9534767213671479e+01  3.9606594028037691e+01  3.9666835918597087e+01  3.9717328840445951e+01  3.9759614895598624e+01  3.9794992056411886e+01  3.9824554506083651e+01  3.9849225622494032e+01  3.9869785138266309e+01  3.9886891647431149e+01  3.9901101360446255e+01  3.9912883808589193e+01  3.9922635047521489e+01  3.9930688794990530e+01  3.9937325849728673e+01  3.9942782070753026e+01  3.9947255143436394e+01  3.9950910317206450e+01  3.9953885266777867e+01  3.9956294202396556e+01  3.9958231333120857e+01  3.9959773769530514e+01  3.9960983937555817e+01  3.9961911562683447e+01  3.9962595273098344e+01  3.9963063860965725e+01  3.9963337232718324e+01  3.9963427071638925e+01  3.9963337229002938e+01  3.9963063853398531e+01  3.9962595261404331e+01  3.9961911546444433e+01  3.9960983916203780e+01  3.9959773742339287e+01  3.9958231299195667e+01  3.9956294160662011e+01  3.9953885215965251e+01  3.9950910255839943e+01  3.9947255069818887e+01  3.9942781982952347e+01  3.9937325745565055e+01  3.9930688672024949e+01  3.9922634903046912e+01  3.9912883639624717e+01  3.9901101163735255e+01  3.9886891419444439e+01  3.9869784875210613e+01  3.9849225320327058e+01  3.9824554160536081e+01  3.9794991663016937e+01  3.9759614449729092e+01  3.9717328337359504e+01  3.9666835353488473e+01  3.9606593396098233e+01  3.9534766510153609e+01  3.9449163077333104e+01  3.9347158275355824e+01  3.9225595847349602e+01  3.9080662359074900e+01  3.8907724456347822e+01  3.8701115777019503e+01  3.8453854522815767e+01  3.8157264329246537e+01  3.7800458543501989e+01  3.7369629084686501e+01  3.6847052259527977e+01  3.6209680082609644e+01  3.5427119718430085e+01  3.4458707995393610e+01  3.3249262068457583e+01  3.1722967148979283e+01  2.9774917470069429e+01  2.7260656917629653e+01  2.3987485624496813e+01  1.9721748498892772e+01  1.4249280100649711e+01  7.5429687513065922e+00  0.0000000000000000e+00  0.0000000000000000e+00  5.9680063497760640e+00  1.1482032695412112e+01  1.6259146613393796e+01  2.0223638857366140e+01  2.3437361156561195e+01  2.6017629685536502e+01  2.8086836113298975e+01  2.9751614267952259e+01  3.1098079184913001e+01  3.2193529401524422e+01  3.3089933220828541e+01  3.3827372278060047e+01  3.4436896205097995e+01  3.4942731568173478e+01  3.5363941471641333e+01  3.5715658579864929e+01  3.6009999661986903e+01  3.6256746308467278e+01  3.6463854874819710e+01  3.6637841587838572e+01  3.6784075985815932e+01  3.6907006611394195e+01  3.7010336249114069e+01  3.7097159271631092e+01  3.7170070281572571e+01  3.7231250814824904e+01  3.7282539125741309e+01  3.7325486808719170e+01  3.7361405085979470e+01  3.7391402911404548e+01  3.7416418536722439e+01  3.7437245810797577e+01  3.7454556200814409e+01  3.7468917310958886e+01  3.7480808511915562e+01  3.7490634170093678e+01  3.7498734869432418e+01  3.7505396943892990e+01  3.7510860580116656e+01  3.7515326703331432e+01  3.7518962822520635e+01  3.7521907980934138e+01  3.7524276933576239e+01  3.7526163653079244e+01  3.7527644248412187e+01  3.7528779366439849e+01  3.7529616133860969e+01  3.7530189686076035e+01  3.7530524319700937e+01  3.7530634296472996e+01  3.7530524317948064e+01  3.7530189682465938e+01  3.7529616128182639e+01  3.7528779358370606e+01  3.7527644237510785e+01  3.7526163638776495e+01  3.7524276915163718e+01  3.7521907957551100e+01  3.7518962793139615e+01  3.7515326666742496e+01  3.7510860534911153e+01  3.7505396888447308e+01  3.7498734801891878e+01  3.7490634088357929e+01  3.7480808413625681e+01  3.7468917193487513e+01  3.7454556061259218e+01  3.7437245645979544e+01  3.7416418343189605e+01  3.7391402685441719e+01  3.7361404823625335e+01  3.7325486505790877e+01  3.7282538777866705e+01  3.7231250417483466e+01  3.7170069830143667e+01  3.7097158761449656e+01  3.7010335675532403e+01  3.6907005969848186e+01  3.6784075271893535e+01  3.6637840797347778e+01  3.6463854003852830e+01  3.6256745353457013e+01  3.6009998619750178e+01  3.5715657447628580e+01  3.5363940247044226e+01  3.4942730249238366e+01  3.4436894790165965e+01  3.3827370765679689e+01  3.3089931609591112e+01  3.2193527689835413e+01  3.1098077370689893e+01  2.9751612348237419e+01  2.8086834083778797e+01  2.6017627539965318e+01  2.3437358886105994e+01  2.0223636449920612e+01  1.6259144052920565e+01  1.1482029961227758e+01  5.9680034152458710e+00  0.0000000000000000e+00  0.0000000000000000e+00  4.8828961265743738e+00  9.4945330770846255e+00  1.3639696108959608e+01  1.7228797041967251e+01  2.0260058192024605e+01  2.2783296771342055e+01  2.4868829008681562e+01  2.6588642524561564e+01  2.8007641783086790e+01  2.9180855065203275e+01  3.0153516242835678e+01  3.0962265046579294e+01  3.1636614560478129e+01  3.2200329209355068e+01  3.2672595120145679e+01  3.3068968394690003e+01  3.3402125816375133e+01  3.3682452834054210e+01  3.3918502462291663e+01  3.4117353698757810e+01  3.4284892408066170e+01  3.4426032553555700e+01  3.4544891501124077e+01  3.4644929853635468e+01  3.4729063767037204e+01  3.4799755796742190e+01  3.4859088887182693e+01  3.4908827036021165e+01  3.4950465349388544e+01  3.4985271588799904e+01  3.5014320843807482e+01  3.5038524609507078e+01  3.5058655276813113e+01  3.5075366835211391e+01  3.5089212427022076e+01  3.5100659267509037e+01  3.5110101347806392e+01  3.5117870261093572e+01  3.5124244431833837e+01  3.5129456979485298e+01  3.5133702409082254e+01  3.5137142289318462e+01  3.5139910052607306e+01  3.5142115029779703e+01  3.5143845813647346e+01  3.5145173029849147e+01  3.5146151579627805e+01  3.5146822406990360e+01  3.5147213831721274e+01  3.5147342479641495e+01  3.5147213832092795e+01  3.5146822407661801e+01  3.5146151580453243e+01  3.5145173030603068e+01  3.5143845814016736e+01  3.5142115029353796e+01  3.5139910050864692e+01  3.5137142285612526e+01  3.5133702402624372e+01  3.5129456969326654e+01  3.5124244416846146e+01  3.5117870239949411e+01  3.5110101318959181e+01  3.5100659229174028e+01  3.5089212377158802e+01  3.5075366771508563e+01  3.5058655196676909e+01  3.5038524510053790e+01  3.5014320721861466e+01  3.4985271440898281e+01  3.4950465171792715e+01  3.4908826824736565e+01  3.4859088637987064e+01  3.4799755505222663e+01  3.4729063428636131e+01  3.4644929463704344e+01  3.4544891054984731e+01  3.4426032046566945e+01  3.4284891835693678e+01  3.4117353056644653e+01  3.3918501746325575e+01  3.3682452040427428e+01  3.3402124941632259e+01  3.3068967435757592e+01  3.2672594074338136e+01  3.2200328074349585e+01  3.1636613334251855e+01  3.0962263727300897e+01  3.0153514828703511e+01  2.9180853554222136e+01  2.8007640172776025e+01  2.6588640811587872e+01  2.4868827188414325e+01  2.2783294837334044e+01  2.0260056135431864e+01  1.7228794850926914e+01  1.3639693767928367e+01  9.4945305660742711e+00  4.8828934201352308e+00  0.0000000000000000e+00  0.0000000000000000e+00  4.0862771535453639e+00  7.9985510035092888e+00  1.1600323968388610e+01  1.4812001616345277e+01  1.7608518549465646e+01  2.0004176760956977e+01  2.2035449035506204e+01  2.3747668747629561e+01  2.5186800414404665e+01  2.6395234753419569e+01  2.7410134426284927e+01  2.8263171941569489e+01  2.8980925588365203e+01  2.9585523591328183e+01  3.0095329817232081e+01  3.0525578448265833e+01  3.0888924269033460e+01  3.1195903680602701e+01  3.1455313821912899e+01  3.1674521376806677e+01  3.1859713083512865e+01  3.2016098832928542e+01  3.2148076606594302e+01  3.2259366849582982e+01  3.2353122393896498e+01  3.2432018802827052e+01  3.2498328992903978e+01  3.2553985180170095e+01  3.2600630557790154e+01  3.2639662609839846e+01  3.2672269573219602e+01  3.2699461252525161e+01  3.2722095152524538e+01  3.2740898704723620e+01  3.2756488216677276e+01  3.2769385056143207e+01  3.2780029489846534e+01  3.2788792523081526e+01  3.2795986027420042e+01  3.2801871396167755e+01  3.2806666928401931e+01  3.2810554110485896e+01  3.2813682937383071e+01  3.2816176393712126e+01  3.2818134195383720e+01  3.2819635876124835e+01  3.2820743288666094e+01  3.2821502577394952e+01  3.2821945667504799e+01  3.2822091304802484e+01  3.2821945670131363e+01  3.2821502582609497e+01  3.2820743296388436e+01  3.2819635886227196e+01  3.2818134207681936e+01  3.2816176407953840e+01  3.2813682953233219e+01  3.2810554127509945e+01  3.2806666946046384e+01  3.2801871413738731e+01  3.2795986044060520e+01  3.2788792537747305e+01  3.2780029501281774e+01  3.2769385062856259e+01  3.2756488216917553e+01  3.2740898696460711e+01  3.2722095133430436e+01  3.2699461219960760e+01  3.2672269524226721e+01  3.2639662541139963e+01  3.2600630465790807e+01  3.2553985060979748e+01  3.2498328842356756e+01  3.2432018616517169e+01  3.2353122167222637e+01  3.2259366577802318e+01  3.2148076284885406e+01  3.2016098456461300e+01  3.1859712647523384e+01  3.1674520876674244e+01  3.1455313253235342e+01  3.1195903039265431e+01  3.0888923551267645e+01  3.0525577650689364e+01  3.0095328936867009e+01  2.9585522625588151e+01  2.8980924535005293e+01  2.8263170798591513e+01  2.7410133191791083e+01  2.6395233425407689e+01  2.5186798990500222e+01  2.3747667224750611e+01  2.2035447409462353e+01  2.0004175025986363e+01  1.7608516697720422e+01  1.4811999637336323e+01  1.1600321848393039e+01  7.9985487249334781e+00  4.0862746942342962e+00  0.0000000000000000e+00  0.0000000000000000e+00  3.4738918424281260e+00  6.8300002757157872e+00  9.9706199354424747e+00  1.2830392051249914e+01  1.5378090391443003e+01  1.7610642343788118e+01  1.9544091970191705e+01  2.1205109724473868e+01  2.2624652386663939e+01  2.3833924735398732e+01  2.4862154297593044e+01  2.5735579743436716e+01  2.6477163800105000e+01  2.7106695497018563e+01  2.7641074958091480e+01  2.8094662922484542e+01  2.8479632906662864e+01  2.8806296543098018e+01  2.9083390679650904e+01  2.9318324224090002e+01  2.9517387214293581e