<?xml version="1.0"?>
<VTKFile type="UnstructuredGrid"  version="0.1"  >
<UnstructuredGrid>
<Piece  NumberOfPoints="10201" NumberOfCells="20000">
<Points>
<DataArray  type="Float64"  NumberOfComponents="3"  format="ascii">0 0 0  0.01 0 0  0.02 0 0  0.03 0 0  0.04 0 0  0.05 0 0  0.06 0 0  0.07000000000000001 0 0  0.08 0 0  0.09 0 0  0.1 0 0  0.11 0 0  0.12 0 0  0.13 0 0  0.14 0 0  0.15 0 0  0.16 0 0  0.17 0 0  0.18 0 0  0.19 0 0  0.2 0 0  0.21 0 0  0.22 0 0  0.23 0 0  0.24 0 0  0.25 0 0  0.26 0 0  0.27 0 0  0.28 0 0  0.29 0 0  0.3 0 0  0.31 0 0  0.32 0 0  0.33 0 0  0.34 0 0  0.35 0 0  0.36 0 0  0.37 0 0  0.38 0 0  0.39 0 0  0.4 0 0  0.41 0 0  0.42 0 0  0.43 0 0  0.44 0 0  0.45 0 0  0.46 0 0  0.47 0 0  0.48 0 0  0.49 0 0  0.5 0 0  0.51 0 0  0.52 0 0  0.53 0 0  0.54 0 0  0.55 0 0  0.5600000000000001 0 0  0.57 0 0  0.58 0 0  0.59 0 0  0.6 0 0  0.61 0 0  0.62 0 0  0.63 0 0  0.64 0 0  0.65 0 0  0.66 0 0  0.67 0 0  0.68 0 0  0.6899999999999999 0 0  0.7 0 0  0.71 0 0  0.72 0 0  0.73 0 0  0.74 0 0  0.75 0 0  0.76 0 0  0.77 0 0  0.78 0 0  0.79 0 0  0.8 0 0  0.8100000000000001 0 0  0.82 0 0  0.83 0 0  0.84 0 0  0.85 0 0  0.86 0 0  0.87 0 0  0.88 0 0  0.89 0 0  0.9 0 0  0.91 0 0  0.92 0 0  0.93 0 0  0.9399999999999999 0 0  0.95 0 0  0.96 0 0  0.97 0 0  0.98 0 0  0.99 0 0  1 0 0  0 0.01 0  0.01 0.01 0  0.02 0.01 0  0.03 0.01 0  0.04 0.01 0  0.05 0.01 0  0.06 0.01 0  0.07000000000000001 0.01 0  0.08 0.01 0  0.09 0.01 0  0.1 0.01 0  0.11 0.01 0  0.12 0.01 0  0.13 0.01 0  0.14 0.01 0  0.15 0.01 0  0.16 0.01 0  0.17 0.01 0  0.18 0.01 0  0.19 0.01 0  0.2 0.01 0  0.21 0.01 0  0.22 0.01 0  0.23 0.01 0  0.24 0.01 0  0.25 0.01 0  0.26 0.01 0  0.27 0.01 0  0.28 0.01 0  0.29 0.01 0  0.3 0.01 0  0.31 0.01 0  0.32 0.01 0  0.33 0.01 0  0.34 0.01 0  0.35 0.01 0  0.36 0.01 0  0.37 0.01 0  0.38 0.01 0  0.39 0.01 0  0.4 0.01 0  0.41 0.01 0  0.42 0.01 0  0.43 0.01 0  0.44 0.01 0  0.45 0.01 0  0.46 0.01 0  0.47 0.01 0  0.48 0.01 0  0.49 0.01 0  0.5 0.01 0  0.51 0.01 0  0.52 0.01 0  0.53 0.01 0  0.54 0.01 0  0.55 0.01 0  0.5600000000000001 0.01 0  0.57 0.01 0  0.58 0.01 0  0.59 0.01 0  0.6 0.01 0  0.61 0.01 0  0.62 0.01 0  0.63 0.01 0  0.64 0.01 0  0.65 0.01 0  0.66 0.01 0  0.67 0.01 0  0.68 0.01 0  0.6899999999999999 0.01 0  0.7 0.01 0  0.71 0.01 0  0.72 0.01 0  0.73 0.01 0  0.74 0.01 0  0.75 0.01 0  0.76 0.01 0  0.77 0.01 0  0.78 0.01 0  0.79 0.01 0  0.8 0.01 0  0.8100000000000001 0.01 0  0.82 0.01 0  0.83 0.01 0  0.84 0.01 0  0.85 0.01 0  0.86 0.01 0  0.87 0.01 0  0.88 0.01 0  0.89 0.01 0  0.9 0.01 0  0.91 0.01 0  0.92 0.01 0  0.93 0.01 0  0.9399999999999999 0.01 0  0.95 0.01 0  0.96 0.01 0  0.97 0.01 0  0.98 0.01 0  0.99 0.01 0  1 0.01 0  0 0.02 0  0.01 0.02 0  0.02 0.02 0  0.03 0.02 0  0.04 0.02 0  0.05 0.02 0  0.06 0.02 0  0.07000000000000001 0.02 0  0.08 0.02 0  0.09 0.02 0  0.1 0.02 0  0.11 0.02 0  0.12 0.02 0  0.13 0.02 0  0.14 0.02 0  0.15 0.02 0  0.16 0.02 0  0.17 0.02 0  0.18 0.02 0  0.19 0.02 0  0.2 0.02 0  0.21 0.02 0  0.22 0.02 0  0.23 0.02 0  0.24 0.02 0  0.25 0.02 0  0.26 0.02 0  0.27 0.02 0  0.28 0.02 0  0.29 0.02 0  0.3 0.02 0  0.31 0.02 0  0.32 0.02 0  0.33 0.02 0  0.34 0.02 0  0.35 0.02 0  0.36 0.02 0  0.37 0.02 0  0.38 0.02 0  0.39 0.02 0  0.4 0.02 0  0.41 0.02 0  0.42 0.02 0  0.43 0.02 0  0.44 0.02 0  0.45 0.02 0  0.46 0.02 0  0.47 0.02 0  0.48 0.02 0  0.49 0.02 0  0.5 0.02 0  0.51 0.02 0  0.52 0.02 0  0.53 0.02 0  0.54 0.02 0  0.55 0.02 0  0.5600000000000001 0.02 0  0.57 0.02 0  0.58 0.02 0  0.59 0.02 0  0.6 0.02 0  0.61 0.02 0  0.62 0.02 0  0.63 0.02 0  0.64 0.02 0  0.65 0.02 0  0.66 0.02 0  0.67 0.02 0  0.68 0.02 0  0.6899999999999999 0.02 0  0.7 0.02 0  0.71 0.02 0  0.72 0.02 0  0.73 0.02 0  0.74 0.02 0  0.75 0.02 0  0.76 0.02 0  0.77 0.02 0  0.78 0.02 0  0.79 0.02 0  0.8 0.02 0  0.8100000000000001 0.02 0  0.82 0.02 0  0.83 0.02 0  0.84 0.02 0  0.85 0.02 0  0.86 0.02 0  0.87 0.02 0  0.88 0.02 0  0.89 0.02 0  0.9 0.02 0  0.91 0.02 0  0.92 0.02 0  0.93 0.02 0  0.9399999999999999 0.02 0  0.95 0.02 0  0.96 0.02 0  0.97 0.02 0  0.98 0.02 0  0.99 0.02 0  1 0.02 0  0 0.03 0  0.01 0.03 0  0.02 0.03 0  0.03 0.03 0  0.04 0.03 0  0.05 0.03 0  0.06 0.03 0  0.07000000000000001 0.03 0  0.08 0.03 0  0.09 0.03 0  0.1 0.03 0  0.11 0.03 0  0.12 0.03 0  0.13 0.03 0  0.14 0.03 0  0.15 0.03 0  0.16 0.03 0  0.17 0.03 0  0.18 0.03 0  0.19 0.03 0  0.2 0.03 0  0.21 0.03 0  0.22 0.03 0  0.23 0.03 0  0.24 0.03 0  0.25 0.03 0  0.26 0.03 0  0.27 0.03 0  0.28 0.03 0  0.29 0.03 0  0.3 0.03 0  0.31 0.03 0  0.32 0.03 0  0.33 0.03 0  0.34 0.03 0  0.35 0.03 0  0.36 0.03 0  0.37 0.03 0  0.38 0.03 0  0.39 0.03 0  0.4 0.03 0  0.41 0.03 0  0.42 0.03 0  0.43 0.03 0  0.44 0.03 0  0.45 0.03 0  0.46 0.03 0  0.47 0.03 0  0.48 0.03 0  0.49 0.03 0  0.5 0.03 0  0.51 0.03 0  0.52 0.03 0  0.53 0.03 0  0.54 0.03 0  0.55 0.03 0  0.5600000000000001 0.03 0  0.57 0.03 0  0.58 0.03 0  0.59 0.03 0  0.6 0.03 0  0.61 0.03 0  0.62 0.03 0  0.63 0.03 0  0.64 0.03 0  0.65 0.03 0  0.66 0.03 0  0.67 0.03 0  0.68 0.03 0  0.6899999999999999 0.03 0  0.7 0.03 0  0.71 0.03 0  0.72 0.03 0  0.73 0.03 0  0.74 0.03 0  0.75 0.03 0  0.76 0.03 0  0.77 0.03 0  0.78 0.03 0  0.79 0.03 0  0.8 0.03 0  0.8100000000000001 0.03 0  0.82 0.03 0  0.83 0.03 0  0.84 0.03 0  0.85 0.03 0  0.86 0.03 0  0.87 0.03 0  0.88 0.03 0  0.89 0.03 0  0.9 0.03 0  0.91 0.03 0  0.92 0.03 0  0.93 0.03 0  0.9399999999999999 0.03 0  0.95 0.03 0  0.96 0.03 0  0.97 0.03 0  0.98 0.03 0  0.99 0.03 0  1 0.03 0  0 0.04 0  0.01 0.04 0  0.02 0.04 0  0.03 0.04 0  0.04 0.04 0  0.05 0.04 0  0.06 0.04 0  0.07000000000000001 0.04 0  0.08 0.04 0  0.09 0.04 0  0.1 0.04 0  0.11 0.04 0  0.12 0.04 0  0.13 0.04 0  0.14 0.04 0  0.15 0.04 0  0.16 0.04 0  0.17 0.04 0  0.18 0.04 0  0.19 0.04 0  0.2 0.04 0  0.21 0.04 0  0.22 0.04 0  0.23 0.04 0  0.24 0.04 0  0.25 0.04 0  0.26 0.04 0  0.27 0.04 0  0.28 0.04 0  0.29 0.04 0  0.3 0.04 0  0.31 0.04 0  0.32 0.04 0  0.33 0.04 0  0.34 0.04 0  0.35 0.04 0  0.36 0.04 0  0.37 0.04 0  0.38 0.04 0  0.39 0.04 0  0.4 0.04 0  0.41 0.04 0  0.42 0.04 0  0.43 0.04 0  0.44 0.04 0  0.45 0.04 0  0.46 0.04 0  0.47 0.04 0  0.48 0.04 0  0.49 0.04 0  0.5 0.04 0  0.51 0.04 0  0.52 0.04 0  0.53 0.04 0  0.54 0.04 0  0.55 0.04 0  0.5600000000000001 0.04 0  0.57 0.04 0  0.58 0.04 0  0.59 0.04 0  0.6 0.04 0  0.61 0.04 0  0.62 0.04 0  0.63 0.04 0  0.64 0.04 0  0.65 0.04 0  0.66 0.04 0  0.67 0.04 0  0.68 0.04 0  0.6899999999999999 0.04 0  0.7 0.04 0  0.71 0.04 0  0.72 0.04 0  0.73 0.04 0  0.74 0.04 0  0.75 0.04 0  0.76 0.04 0  0.77 0.04 0  0.78 0.04 0  0.79 0.04 0  0.8 0.04 0  0.8100000000000001 0.04 0  0.82 0.04 0  0.83 0.04 0  0.84 0.04 0  0.85 0.04 0  0.86 0.04 0  0.87 0.04 0  0.88 0.04 0  0.89 0.04 0  0.9 0.04 0  0.91 0.04 0  0.92 0.04 0  0.93 0.04 0  0.9399999999999999 0.04 0  0.95 0.04 0  0.96 0.04 0  0.97 0.04 0  0.98 0.04 0  0.99 0.04 0  1 0.04 0  0 0.05 0  0.01 0.05 0  0.02 0.05 0  0.03 0.05 0  0.04 0.05 0  0.05 0.05 0  0.06 0.05 0  0.07000000000000001 0.05 0  0.08 0.05 0  0.09 0.05 0  0.1 0.05 0  0.11 0.05 0  0.12 0.05 0  0.13 0.05 0  0.14 0.05 0  0.15 0.05 0  0.16 0.05 0  0.17 0.05 0  0.18 0.05 0  0.19 0.05 0  0.2 0.05 0  0.21 0.05 0  0.22 0.05 0  0.23 0.05 0  0.24 0.05 0  0.25 0.05 0  0.26 0.05 0  0.27 0.05 0  0.28 0.05 0  0.29 0.05 0  0.3 0.05 0  0.31 0.05 0  0.32 0.05 0  0.33 0.05 0  0.34 0.05 0  0.35 0.05 0  0.36 0.05 0  0.37 0.05 0  0.38 0.05 0  0.39 0.05 0  0.4 0.05 0  0.41 0.05 0  0.42 0.05 0  0.43 0.05 0  0.44 0.05 0  0.45 0.05 0  0.46 0.05 0  0.47 0.05 0  0.48 0.05 0  0.49 0.05 0  0.5 0.05 0  0.51 0.05 0  0.52 0.05 0  0.53 0.05 0  0.54 0.05 0  0.55 0.05 0  0.5600000000000001 0.05 0  0.57 0.05 0  0.58 0.05 0  0.59 0.05 0  0.6 0.05 0  0.61 0.05 0  0.62 0.05 0  0.63 0.05 0  0.64 0.05 0  0.65 0.05 0  0.66 0.05 0  0.67 0.05 0  0.68 0.05 0  0.6899999999999999 0.05 0  0.7 0.05 0  0.71 0.05 0  0.72 0.05 0  0.73 0.05 0  0.74 0.05 0  0.75 0.05 0  0.76 0.05 0  0.77 0.05 0  0.78 0.05 0  0.79 0.05 0  0.8 0.05 0  0.8100000000000001 0.05 0  0.82 0.05 0  0.83 0.05 0  0.84 0.05 0  0.85 0.05 0  0.86 0.05 0  0.87 0.05 0  0.88 0.05 0  0.89 0.05 0  0.9 0.05 0  0.91 0.05 0  0.92 0.05 0  0.93 0.05 0  0.9399999999999999 0.05 0  0.95 0.05 0  0.96 0.05 0  0.97 0.05 0  0.98 0.05 0  0.99 0.05 0  1 0.05 0  0 0.06 0  0.01 0.06 0  0.02 0.06 0  0.03 0.06 0  0.04 0.06 0  0.05 0.06 0  0.06 0.06 0  0.07000000000000001 0.06 0  0.08 0.06 0  0.09 0.06 0  0.1 0.06 0  0.11 0.06 0  0.12 0.06 0  0.13 0.06 0  0.14 0.06 0  0.15 0.06 0  0.16 0.06 0  0.17 0.06 0  0.18 0.06 0  0.19 0.06 0  0.2 0.06 0  0.21 0.06 0  0.22 0.06 0  0.23 0.06 0  0.24 0.06 0  0.25 0.06 0  0.26 0.06 0  0.27 0.06 0  0.28 0.06 0  0.29 0.06 0  0.3 0.06 0  0.31 0.06 0  0.32 0.06 0  0.33 0.06 0  0.34 0.06 0  0.35 0.06 0  0.36 0.06 0  0.37 0.06 0  0.38 0.06 0  0.39 0.06 0  0.4 0.06 0  0.41 0.06 0  0.42 0.06 0  0.43 0.06 0  0.44 0.06 0  0.45 0.06 0  0.46 0.06 0  0.47 0.06 0  0.48 0.06 0  0.49 0.06 0  0.5 0.06 0  0.51 0.06 0  0.52 0.06 0  0.53 0.06 0  0.54 0.06 0  0.55 0.06 0  0.5600000000000001 0.06 0  0.57 0.06 0  0.58 0.06 0  0.59 0.06 0  0.6 0.06 0  0.61 0.06 0  0.62 0.06 0  0.63 0.06 0  0.64 0.06 0  0.65 0.06 0  0.66 0.06 0  0.67 0.06 0  0.68 0.06 0  0.6899999999999999 0.06 0  0.7 0.06 0  0.71 0.06 0  0.72 0.06 0  0.73 0.06 0  0.74 0.06 0  0.75 0.06 0  0.76 0.06 0  0.77 0.06 0  0.78 0.06 0  0.79 0.06 0  0.8 0.06 0  0.8100000000000001 0.06 0  0.82 0.06 0  0.83 0.06 0  0.84 0.06 0  0.85 0.06 0  0.86 0.06 0  0.87 0.06 0  0.88 0.06 0  0.89 0.06 0  0.9 0.06 0  0.91 0.06 0  0.92 0.06 0  0.93 0.06 0  0.9399999999999999 0.06 0  0.95 0.06 0  0.96 0.06 0  0.97 0.06 0  0.98 0.06 0  0.99 0.06 0  1 0.06 0  0 0.07000000000000001 0  0.01 0.07000000000000001 0  0.02 0.07000000000000001 0  0.03 0.07000000000000001 0  0.04 0.07000000000000001 0  0.05 0.07000000000000001 0  0.06 0.07000000000000001 0  0.07000000000000001 0.07000000000000001 0  0.08 0.07000000000000001 0  0.09 0.07000000000000001 0  0.1 0.07000000000000001 0  0.11 0.07000000000000001 0  0.12 0.07000000000000001 0  0.13 0.07000000000000001 0  0.14 0.07000000000000001 0  0.15 0.07000000000000001 0  0.16 0.07000000000000001 0  0.17 0.0700
[...]
<PointData  Scalars="f_17"> 
<DataArray  type="Float64"  Name="f_17"  format="ascii">0.0000000000000000e+00  5.0000000000000000e+01  5.0000000000000000e+01  5.0000000000000000e+01  5.0000000000000000e+01  5.0000000000000000e+01  5.0000000000000000e+01  5.0000000000000000e+01  5.0000000000000000e+01  5.0000000000000000e+01  5.0000000000000000e+01  5.0000000000000000e+01  5.0000000000000000e+01  5.0000000000000000e+01  5.0000000000000000e+01  5.0000000000000000e+01  5.0000000000000000e+01  5.0000000000000000e+01  5.0000000000000000e+01  5.0000000000000000e+01  5.0000000000000000e+01  5.0000000000000000e+01  5.0000000000000000e+01  5.0000000000000000e+01  5.0000000000000000e+01  5.0000000000000000e+01  5.0000000000000000e+01  5.0000000000000000e+01  5.0000000000000000e+01  5.0000000000000000e+01  5.0000000000000000e+01  5.0000000000000000e+01  5.0000000000000000e+01  5.0000000000000000e+01  5.0000000000000000e+01  5.0000000000000000e+01  5.0000000000000000e+01  5.0000000000000000e+01  5.0000000000000000e+01  5.0000000000000000e+01  5.0000000000000000e+01  5.0000000000000000e+01  5.0000000000000000e+01  5.0000000000000000e+01  5.0000000000000000e+01  5.0000000000000000e+01  5.0000000000000000e+01  5.0000000000000000e+01  5.0000000000000000e+01  5.0000000000000000e+01  5.0000000000000000e+01  5.0000000000000000e+01  5.0000000000000000e+01  5.0000000000000000e+01  5.0000000000000000e+01  5.0000000000000000e+01  5.0000000000000000e+01  5.0000000000000000e+01  5.0000000000000000e+01  5.0000000000000000e+01  5.0000000000000000e+01  5.0000000000000000e+01  5.0000000000000000e+01  5.0000000000000000e+01  5.0000000000000000e+01  5.0000000000000000e+01  5.0000000000000000e+01  5.0000000000000000e+01  5.0000000000000000e+01  5.0000000000000000e+01  5.0000000000000000e+01  5.0000000000000000e+01  5.0000000000000000e+01  5.0000000000000000e+01  5.0000000000000000e+01  5.0000000000000000e+01  5.0000000000000000e+01  5.0000000000000000e+01  5.0000000000000000e+01  5.0000000000000000e+01  5.0000000000000000e+01  5.0000000000000000e+01  5.0000000000000000e+01  5.0000000000000000e+01  5.0000000000000000e+01  5.0000000000000000e+01  5.0000000000000000e+01  5.0000000000000000e+01  5.0000000000000000e+01  5.0000000000000000e+01  5.0000000000000000e+01  5.0000000000000000e+01  5.0000000000000000e+01  5.0000000000000000e+01  5.0000000000000000e+01  5.0000000000000000e+01  5.0000000000000000e+01  5.0000000000000000e+01  5.0000000000000000e+01  5.0000000000000000e+01  0.0000000000000000e+00  0.0000000000000000e+00  2.4844517096257352e+01  3.4943464955812473e+01  3.9297087738404876e+01  4.1588573021133506e+01  4.2955170822096754e+01  4.3837503000890990e+01  4.4437820375495370e+01  4.4861155454952851e+01  4.5167265749703795e+01  4.5392585196664456e+01  4.5560549984609487e+01  4.5686883510595528e+01  4.5782491903765340e+01  4.5855142202443389e+01  4.5910482253100731e+01  4.5952686321901545e+01  4.5984878511854852e+01  4.6009419197012690e+01  4.6028104115214120e+01  4.6042306050965493e+01  4.6053077721828544e+01  4.6061227775278972e+01  4.6067377716462097e+01  4.6072005032914980e+01  4.6075476147301572e+01  4.6078071758611202e+01  4.6080006415510226e+01  4.6081443675003342e+01  4.6082507856448416e+01  4.6083293155794735e+01  4.6083870706107902e+01  4.6084294037564902e+01  4.6084603289682484e+01  4.6084828451584748e+01  4.6084991846465236e+01  4.6085110029776544e+01  4.6085195234030699e+01  4.6085256464186131e+01  4.6085300324765981e+01  4.6085331641829157e+01  4.6085353928702659e+01  4.6085369733215821e+01  4.6085380895417941e+01  4.6085388737926735e+01  4.6085394205730751e+01  4.6085397968144811e+01  4.6085400492418792e+01  4.6085402096027586e+01  4.6085402982742274e+01  4.6085403266067864e+01  4.6085402982412319e+01  4.6085402095330338e+01  4.6085400491276047e+01  4.6085397966430023e+01  4.6085394203257039e+01  4.6085388734429507e+01  4.6085380890531276e+01  4.6085369726440462e+01  4.6085353919363939e+01  4.6085331629022036e+01  4.6085300307284655e+01  4.6085256440433930e+01  4.6085195201906238e+01  4.6085109986531293e+01  4.6084991788527482e+01  4.6084828374343772e+01  4.6084603187227110e+01  4.6084293902371378e+01  4.6083870528672264e+01  4.6083292924206475e+01  4.6082507555905188e+01  4.6081443287269870e+01  4.6080005918330009e+01  4.6078071125085287e+01  4.6075475345257985e+01  4.6072004024300853e+01  4.6067376456801419e+01  4.6061226213249228e+01  4.6053075799020732e+01  4.6042303701898753e+01  4.6028101267682530e+01  4.6009415772839773e+01  4.5984874428122758e+01  4.5952681492704194e+01  4.5910476591838979e+01  4.5855135624638258e+01  4.5782484330309920e+01  4.5686874871298635e+01  4.5560540221807592e+01  4.5392574268596285e+01  4.5167253633250411e+01  4.4861142147245303e+01  4.4437805893747942e+01  4.3837487379540406e+01  4.2955154105612209e+01  4.1588555248571062e+01  3.9297068906971212e+01  3.4943444909420435e+01  2.4844495049371044e+01  0.0000000000000000e+00  0.0000000000000000e+00  1.4437796887700872e+01  2.4384451093530064e+01  3.0365579414014427e+01  3.4023796705905063e+01  3.6376677413756063e+01  3.7960901706398438e+01  3.9066463905997558e+01  3.9858989866771111e+01  4.0438513821252755e+01  4.0868503482317067e+01  4.1190933612398176e+01  4.1434535283203360e+01  4.1619535724559242e+01  4.1760503708800371e+01  4.1868125787854133e+01  4.1950354510492041e+01  4.2013174195063549e+01  4.2061126061874461e+01  4.2097677348116527e+01  4.2125486436817859e+01  4.2146596884379868e+01  4.2162581671939101e+01  4.2174651851690122e+01  4.2183739228364864e+01  4.2190559782949606e+01  4.2195662606109643e+01  4.2199467798775068e+01  4.2202295893635572e+01  4.2204390714542910e+01  4.2205937132742783e+01  4.2207074842688925e+01  4.2207909028928405e+01  4.2208518604672385e+01  4.2208962555697688e+01  4.2209284808833459e+01  4.2209517954555444e+01  4.2209686082442019e+01  4.2209806932279498e+01  4.2209893519293644e+01  4.2209955356928894e+01  4.2209999372914645e+01  4.2210030592558397e+01  4.2210052646097175e+01  4.2210068143566225e+01  4.2210078950221167e+01  4.2210086387462461e+01  4.2210091377940429e+01  4.2210094548660784e+01  4.2210096302125656e+01  4.2210096862567909e+01  4.2210096301932552e+01  4.2210094548251142e+01  4.2210091377265080e+01  4.2210086386441290e+01  4.2210078948735038e+01  4.2210068141444822e+01  4.2210052643102593e+01  4.2210030588362606e+01  4.2209999367069457e+01  4.2209955348826263e+01  4.2209893508114334e+01  4.2209806916926112e+01  4.2209686061453610e+01  4.2209517925999421e+01  4.2209284770169717e+01  4.2208962503609818e+01  4.2208518534860694e+01  4.2207908935858839e+01  4.2207074719293388e+01  4.2205936970066233e+01  4.2204390501335226e+01  4.2202295615889135e+01  4.2199467439213080e+01  4.2195662143635303e+01  4.2190559192073785e+01  4.2183738478639029e+01  4.2174650907180080e+01  4.2162580490785615e+01  4.2146595418503438e+01  4.2125484631832045e+01  4.2097675143521194e+01  4.2061123391598592e+01  4.2013170988420590e+01  4.1950350693591787e+01  4.1868121285484449e+01  4.1760498446746041e+01  4.1619529632264978e+01  4.1434528296611539e+01  4.1190925676701433e+01  4.0868494554265517e+01  4.0438503870535925e+01  3.9858978875860132e+01  3.9066451867641128e+01  3.7960888617646553e+01  3.6376663264755649e+01  3.4023781460425447e+01  3.0365562976935472e+01  2.4384433268635448e+01  1.4437777462821398e+01  0.0000000000000000e+00  0.0000000000000000e+00  9.7827319881323920e+00  1.7803552728726796e+01  2.3638578600662612e+01  2.7712516930347089e+01  3.0559398655319850e+01  3.2579558351192190e+01  3.4038683108647753e+01  3.5109467614095060e+01  3.5905543684531963e+01  3.6503397222926182e+01  3.6955794181749312e+01  3.7299989415384765e+01  3.7562829232461311e+01  3.7763997850798965e+01  3.7918135943347636e+01  3.8036258559643493e+01  3.8126727411605344e+01  3.8195932844992946e+01  3.8248782176660605e+01  3.8289055899132151e+01  3.8319671726492174e+01  3.8342883021348634e+01  3.8360429597664258e+01  3.8373653356749088e+01  3.8383587557914360e+01  3.8391026066035046e+01  3.8396577231806042e+01  3.8400705880929287e+01  3.8403766046803113e+01  3.8406026468681240e+01  3.8407690422843544e+01  3.8408911111297641e+01  3.8409803569624700e+01  3.8410453851518611e+01  3.8410926087620140e+01  3.8411267889994761e+01  3.8411514473505079e+01  3.8411691785791668e+01  3.8411818874357529e+01  3.8411909669063895e+01  3.8411974318593494e+01  3.8412020188056189e+01  3.8412052600227874e+01  3.8412075383576607e+01  3.8412091275141407e+01  3.8412102214594476e+01  3.8412109556711883e+01  3.8412114222410246e+01  3.8412116802998206e+01  3.8412117627947858e+01  3.8412116802988201e+01  3.8412114222385057e+01  3.8412109556660177e+01  3.8412102214496649e+01  3.8412091274966123e+01  3.8412075383275450e+01  3.8412052599727630e+01  3.8412020187247904e+01  3.8411974317317032e+01  3.8411909667086611e+01  3.8411818871345041e+01  3.8411691781268296e+01  3.8411514466801037e+01  3.8411267880176013e+01  3.8410926073396958e+01  3.8410453831127150e+01  3.8409803540675938e+01  3.8408911070587457e+01  3.8407690366117038e+01  3.8406026390345239e+01  3.8403765939581319e+01  3.8400705735457031e+01  3.8396577036163976e+01  3.8391025805226853e+01  3.8383587213299307e+01  3.8373652905449092e+01  3.8360429011974460e+01  3.8342882268193136e+01  3.8319670766977495e+01  3.8289054688262446e+01  3.8248780663288343e+01  3.8195930972080291e+01  3.8126725116868762e+01  3.8036255776637717e+01  3.7918132603014591e+01  3.7763993883459726e+01  3.7562824570162618e+01  3.7299983994425446e+01  3.6955787945107645e+01  3.6503390122189977e+01  3.5905535680801748e+01  3.5109458677187227e+01  3.4038673213767417e+01  3.2579547472070367e+01  3.0559386752660998e+01  2.7712503934649014e+01  2.3638564390634585e+01  1.7803537115356800e+01  9.7827147144827169e+00  0.0000000000000000e+00  0.0000000000000000e+00  7.1990401788073868e+00  1.3563935110449853e+01  1.8699969658430142e+01  2.2636594888849451e+01  2.5590141178890683e+01  2.7796208168511519e+01  2.9449183329765457e+01  3.0694927369687157e+01  3.1639452512384072e+01  3.2359377519608820e+01  3.2910392420385598e+01  3.3333385329160166e+01  3.3658713662853152e+01  3.3909157122174790e+01  3.4101969581420541e+01  3.4250321211466314e+01  3.4364326641813534e+01  3.4451789252328460e+01  3.4518748119032630e+01  3.4569885611164452e+01  3.4608834970305217e+01  3.4638414921886842e+01  3.4660810217554648e+01  3.4677711534143960e+01  3.4690424432350191e+01  3.4699954508230903e+01  3.4707074067457889e+01  3.4712374364694256e+01  3.4716306514233693e+01  3.4719213484684595e+01  3.4721355067907723e+01  3.4722927312200639e+01  3.4724077598958530e+01  3.4724916298024056e+01  3.4725525743718975e+01  3.4725967119681840e+01  3.4726285717707945e+01  3.4726514937466803e+01  3.4726679315383244e+01  3.4726796808273669e+01  3.4726880507467037e+01  3.4726939919631164e+01  3.4726981919354117e+01  3.4727011454041751e+01  3.4727032062538427e+01  3.4727046253950377e+01  3.4727055781542859e+01  3.4727061837557905e+01  3.4727065187753162e+01  3.4727066258897693e+01  3.4727065187966204e+01  3.4727061838000665e+01  3.4727055782249330e+01  3.4727046254973317e+01  3.4727032063951306e+01  3.4727011455941181e+01  3.4726981921862318e+01  3.4726939922898133e+01  3.4726880511671780e+01  3.4726796813623530e+01  3.4726679322109554e+01  3.4726514945815566e+01  3.4726285727922281e+01  3.4725967131973192e+01  3.4725525758222176e+01  3.4724916314730983e+01  3.4724077617623337e+01  3.4722927332208990e+01  3.4721355088100324e+01  3.4719213503126092e+01  3.4716306527916700e+01  3.4712374369169986e+01  3.4707074056386425e+01  3.4699954472849150e+01  3.4690424360860661e+01  3.4677711411037400e+01  3.4660810022889521e+01  3.4638414630564050e+01  3.4608834551390281e+01  3.4569885027326833e+01  3.4518747326184595e+01  3.4451788199556525e+01  3.4364325271696408e+01  3.4250319460862620e+01  3.4101967382780721e+01  3.3909154405384072e+01  3.3658710357539356e+01  3.3333381367304028e+01  3.2910387738953283e+01  3.2359372062792104e+01  3.1639446232893711e+01  3.0694920228410908e+01  2.9449175292998731e+01  2.7796199201937618e+01  2.5590131237629027e+01  2.2636583903459051e+01  1.8699957518064657e+01  1.3563921645218931e+01  7.1990251366550941e+00  0.0000000000000000e+00  0.0000000000000000e+00  5.5520834651652651e+00  1.0653219635999536e+01  1.5023445550246125e+01  1.8589870921747188e+01  2.1416957146552839e+01  2.3624365593772701e+01  2.5336524684429769e+01  2.6661765122924098e+01  2.7687540607478880e+01  2.8482124691216409e+01  2.9098103654138459e+01  2.9575837308465982e+01  2.9946339723583765e+01  3.0233521000709874e+01  3.0455884365703994e+01  3.0627799267985143e+01  3.0760456699802631e+01  3.0862589749953159e+01  3.0941021118548349e+01  3.1001082525700710e+01  3.1046938504665000e+01  3.1081838113941718e+01  3.1108311734831997e+01  3.1128325605363589e+01  3.1143403528238593e+01  3.1154722885521135e+01  3.1163190420476440e+01  3.1169502016722646e+01  3.1174189785797747e+01  3.1177659076691548e+01  3.1180217483315705e+01  3.1182097505843888e+01  3.1183474189831429e+01  3.1184478802197773e+01  3.1185209390582571e+01  3.1185738901309445e+01  3.1186121392972325e+01  3.1186396771154694e+01  3.1186594380009009e+01  3.1186735714349169e+01  3.1186836458276439e+01  3.1186908010480732e+01  3.1186958620017482e+01  3.1186994227707157e+01  3.1187019085824527e+01  3.1187036211174508e+01  3.1187047712955511e+01  3.1187055026139088e+01  3.1187059072742848e+01  3.1187060366766108e+01  3.1187059073211149e+01  3.1187055027117005e+01  3.1187047714528262e+01  3.1187036213476471e+01  3.1187019089047226e+01  3.1186994232110131e+01  3.1186958625941926e+01  3.1186908018366207e+01  3.1186836468679957e+01  3.1186735727966717e+01  3.1186594397698158e+01  3.1186396793957183e+01  3.1186121422133663e+01  3.1185738938292776e+01  3.1185209437071705e+01  3.1184478860083068e+01  3.1183474261170286e+01  3.1182097592786011e+01  3.1180217587980614e+01  3.1177659200984738e+01  3.1174189931150298e+01  3.1169502183739255e+01  3.1163190608477422e+01  3.1154723091968965e+01  3.1143403748043998e+01  3.1128325830077269e+01  3.1108311951740664e+01  3.1081838305104682e+01  3.1046938645947190e+01  3.1001082585880887e+01  3.0941021058602161e+01  3.0862589522628259e+01  3.0760456249612631e+01  3.0627798531743899e+01  3.0455883273697754e+01  3.0233519478555966e+01  2.9946337694746976e+01  2.9575834697297811e+01  2.9098100389171890e+01  2.8482120708300894e+01  2.7687535852190095e+01  2.6661759551555921e+01  2.5336518262805118e+01  2.3624358293144557e+01  2.1416948936073641e+01  1.8589861757420874e+01  1.5023435360797288e+01  1.0653208305979081e+01  5.5520708140142094e+00  0.0000000000000000e+00  0.0000000000000000e+00  4.4034868477107150e+00  8.5391957267245893e+00  1.2215316667010281e+01  1.5345496673938575e+01  1.7930954325778902e+01  2.0024201091219997e+01  2.1697895097904144e+01  2.3025977406979390e+01  2.4074896263807620e+01  2.4900807568811466e+01  2.5549663885034754e+01  2.6058434087521359e+01  2.6456600345191724e+01  2.6767573384849207e+01  2.7009905507505515e+01  2.7198284546177927e+01  2.7344331131313801e+01  2.7457232237402916e+01  2.7544243124621556e+01  2.7611085120358261e+01  2.7662261398886663e+01  2.7701308187770067e+01  2.7730994967754000e+01  2.7753484211202281e+01  2.7770458885549441e+01  2.7783224180616621e+01  2.7792788568670009e+01  2.7799928267819976e+01  2.7805238372651282e+01  2.7809173281943792e+01  2.7812078549338541e+01  2.7814215878089623e+01  2.7815782653417934e+01  2.7816927139231105e+01  2.7817760248050082e+01  2.7818364614743167e+01  2.7818801558990963e+01  2.7819116402615581e+01  2.7819342511380903e+01  2.7819504352780605e+01  2.7819619798471475e+01  2.7819701849687071e+01  2.7819759923903217e+01  2.7819800809308113e+01  2.7819829368644580e+01  2.7819849054402034e+01  2.7819862282015759e+01  2.7819870695760859e+01  2.7819875352637027e+01  2.7819876842090967e+01  2.7819875353383960e+01  2.7819870697322667e+01  2.7819862284532874e+01  2.7819849058096857e+01  2.7819829373835660e+01  2.7819800816430060e+01  2.7819759933532044e+01  2.7819701862571986e+01  2.7819619815572963e+01  2.7819504375314715e+01  2.7819342540869812e+01  2.7819116440942704e+01  2.7818801608458639e+01  2.7818364678129424e+01  2.7817760328659421e+01  2.7816927240931651e+01  2.7815782780655141e+01  2.7814216035864025e+01  2.7812078743131561e+01  2.7809173517573210e+01  2.7805238656035357e+01  2.7799928604628050e+01  2.7792788963837971e+01  2.7783224637709061e+01  2.7770459405955958e+01  2.7753484793167726e+01  2.7730995605257263e+01  2.7701308869287733e+01  2.7662262106103462e+01  2.7611085826915652e+01  2.7544243795025622e+01  2.7457232826238791e+01  2.7344331582933012e+01  2.7198284795025874e+01  2.7009905479238334e+01  2.6767572998339830e+01  2.6456599515443116e+01  2.6058432729389253e+01  2.5549661917515650e+01  2.4900804919486767e+01  2.4074892872872102e+01  2.3025973230148956e+01  2.1697890107432293e+01  2.0024195274296900e+01  1.7930947679778498e+01  1.5345489198314311e+01  1.2215308352027893e+01  8.5391865395277389e+00  4.4034767165781936e+00  0.0000000000000000e+00  0.0000000000000000e+00  3.5528294217842391e+00  6.9355095453861830e+00  1.0015309094874130e+01  1.2716215275585681e+01  1.5016481456873768e+01  1.6933396004682830e+01  1.8506030082781955e+01  1.9781887453475129e+01  2.0808651361447520e+01  2.1629972052816260e+01  2.2283820077996207e+01  2.2802245135302808e+01  2.3211804107367008e+01  2.3534245957558689e+01  2.3787244181520034e+01  2.3985081655902789e+01  2.4139252161725537e+01  2.4258971634083789e+01  2.4351604830148663e+01  2.4423017707189203e+01  2.4477866639749692e+01  2.4519834845601700e+01  2.4551825080247006e+01  2.4576116273967379e+01  2.4594490515897743e+01  2.4608335695783843e+01  2.4618728197531595e+01  2.4626499279170154e+01  2.4632288146021796e+01  2.4636584203854426e+01  2.4639760546555781e+01  2.4642100372379193e+01  2.4643817721490958e+01  2.4645073675526458e+01  2.4645988949282998e+01  2.4646653629178576e+01  2.4647134667401271e+01  2.4647481620292233e+01  2.4647731020603061e+01  2.4647909692506367e+01  2.4648037252715294e+01  2.4648127988254146e+01  2.4648192259130422e+01  2.4648237540503576e+01  2.4648269192318477e+01  2.4648291023407417e+01  2.4648305700614277e+01  2.4648315040596099e+01  2.4648320211808851e+01  2.4648321866109931e+01  2.4648320212848340e+01  2.4648315042770683e+01  2.4648305704121750e+01  2.4648291028561410e+01  2.4648269199569178e+01  2.4648237550466614e+01  2.4648192272624236e+01  2.4648128006347115e+01  2.4648037276782578e+01  2.4647909724297556e+01  2.4647731062320293e+01  2.4647481674677827e+01  2.4647134737832960e+01  2.4646653719768508e+01  2.4645989064974668e+01  2.4645073822181317e+01  2.4643817905952364e+01  2.4642100602498786e+01  2.4639760831162370e+01  2.4636584552642198e+01  2.4632288569330804e+01  2.4626499787629722e+01  2.4618728801537831e+01  2.4608336404784442e+01  2.4594491337464941e+01  2.4576117212652441e+01  2.4551826136228250e+01  2.4519836013163655e+01  2.4477867905662613e+01  2.4423019049095192e+01  2.4351606215099000e+01  2.4258973017407570e+01  2.4139253486437390e+01  2.3985082852867109e+01  2.3787245170574206e+01  2.3534246649750841e+01  2.3211804408376878e+01  2.2802244949989319e+01  2.2283819315854508e+01  2.1629970633944485e+01  2.0808649222443151e+01  1.9781884552531082e+01  1.8506026403175031e+01  1.6933391555875804e+01  1.5016476272619704e+01  1.2716209408726815e+01  1.0015302608945964e+01  6.9355025036713522e+00  3.5528218751875666e+00  0.0000000000000000e+00  0.0000000000000000e+00  2.8964613594425757e+00  5.6792863851742634e+00  8.2548199577865127e+00  1.0561557890627032e+01  1.2571847630842194e+01  1.4285834900465710e+01  1.5722367094111629e+01  1.6910459917220749e+01  1.7882931611760050e+01  1.8672356105086223e+01  1.9308845351874961e+01  1.9819059638341781e+01  2.0225954385270775e+01  2.0548925595512543e+01  2.0804144367814551e+01  2.1004959922013033e+01  2.1162306520154043e+01  2.1285082611035737e+01  2.1380488965916829e+01  2.1454322397536462e+01  2.1511226573502963e