<?xml version="1.0"?>
<VTKFile type="UnstructuredGrid"  version="0.1"  >
<UnstructuredGrid>
<Piece  NumberOfPoints="10201" NumberOfCells="20000">
<Points>
<DataArray  type="Float64"  NumberOfComponents="3"  format="ascii">0 0 0  0.01 0 0  0.02 0 0  0.03 0 0  0.04 0 0  0.05 0 0  0.06 0 0  0.07000000000000001 0 0  0.08 0 0  0.09 0 0  0.1 0 0  0.11 0 0  0.12 0 0  0.13 0 0  0.14 0 0  0.15 0 0  0.16 0 0  0.17 0 0  0.18 0 0  0.19 0 0  0.2 0 0  0.21 0 0  0.22 0 0  0.23 0 0  0.24 0 0  0.25 0 0  0.26 0 0  0.27 0 0  0.28 0 0  0.29 0 0  0.3 0 0  0.31 0 0  0.32 0 0  0.33 0 0  0.34 0 0  0.35 0 0  0.36 0 0  0.37 0 0  0.38 0 0  0.39 0 0  0.4 0 0  0.41 0 0  0.42 0 0  0.43 0 0  0.44 0 0  0.45 0 0  0.46 0 0  0.47 0 0  0.48 0 0  0.49 0 0  0.5 0 0  0.51 0 0  0.52 0 0  0.53 0 0  0.54 0 0  0.55 0 0  0.5600000000000001 0 0  0.57 0 0  0.58 0 0  0.59 0 0  0.6 0 0  0.61 0 0  0.62 0 0  0.63 0 0  0.64 0 0  0.65 0 0  0.66 0 0  0.67 0 0  0.68 0 0  0.6899999999999999 0 0  0.7 0 0  0.71 0 0  0.72 0 0  0.73 0 0  0.74 0 0  0.75 0 0  0.76 0 0  0.77 0 0  0.78 0 0  0.79 0 0  0.8 0 0  0.8100000000000001 0 0  0.82 0 0  0.83 0 0  0.84 0 0  0.85 0 0  0.86 0 0  0.87 0 0  0.88 0 0  0.89 0 0  0.9 0 0  0.91 0 0  0.92 0 0  0.93 0 0  0.9399999999999999 0 0  0.95 0 0  0.96 0 0  0.97 0 0  0.98 0 0  0.99 0 0  1 0 0  0 0.01 0  0.01 0.01 0  0.02 0.01 0  0.03 0.01 0  0.04 0.01 0  0.05 0.01 0  0.06 0.01 0  0.07000000000000001 0.01 0  0.08 0.01 0  0.09 0.01 0  0.1 0.01 0  0.11 0.01 0  0.12 0.01 0  0.13 0.01 0  0.14 0.01 0  0.15 0.01 0  0.16 0.01 0  0.17 0.01 0  0.18 0.01 0  0.19 0.01 0  0.2 0.01 0  0.21 0.01 0  0.22 0.01 0  0.23 0.01 0  0.24 0.01 0  0.25 0.01 0  0.26 0.01 0  0.27 0.01 0  0.28 0.01 0  0.29 0.01 0  0.3 0.01 0  0.31 0.01 0  0.32 0.01 0  0.33 0.01 0  0.34 0.01 0  0.35 0.01 0  0.36 0.01 0  0.37 0.01 0  0.38 0.01 0  0.39 0.01 0  0.4 0.01 0  0.41 0.01 0  0.42 0.01 0  0.43 0.01 0  0.44 0.01 0  0.45 0.01 0  0.46 0.01 0  0.47 0.01 0  0.48 0.01 0  0.49 0.01 0  0.5 0.01 0  0.51 0.01 0  0.52 0.01 0  0.53 0.01 0  0.54 0.01 0  0.55 0.01 0  0.5600000000000001 0.01 0  0.57 0.01 0  0.58 0.01 0  0.59 0.01 0  0.6 0.01 0  0.61 0.01 0  0.62 0.01 0  0.63 0.01 0  0.64 0.01 0  0.65 0.01 0  0.66 0.01 0  0.67 0.01 0  0.68 0.01 0  0.6899999999999999 0.01 0  0.7 0.01 0  0.71 0.01 0  0.72 0.01 0  0.73 0.01 0  0.74 0.01 0  0.75 0.01 0  0.76 0.01 0  0.77 0.01 0  0.78 0.01 0  0.79 0.01 0  0.8 0.01 0  0.8100000000000001 0.01 0  0.82 0.01 0  0.83 0.01 0  0.84 0.01 0  0.85 0.01 0  0.86 0.01 0  0.87 0.01 0  0.88 0.01 0  0.89 0.01 0  0.9 0.01 0  0.91 0.01 0  0.92 0.01 0  0.93 0.01 0  0.9399999999999999 0.01 0  0.95 0.01 0  0.96 0.01 0  0.97 0.01 0  0.98 0.01 0  0.99 0.01 0  1 0.01 0  0 0.02 0  0.01 0.02 0  0.02 0.02 0  0.03 0.02 0  0.04 0.02 0  0.05 0.02 0  0.06 0.02 0  0.07000000000000001 0.02 0  0.08 0.02 0  0.09 0.02 0  0.1 0.02 0  0.11 0.02 0  0.12 0.02 0  0.13 0.02 0  0.14 0.02 0  0.15 0.02 0  0.16 0.02 0  0.17 0.02 0  0.18 0.02 0  0.19 0.02 0  0.2 0.02 0  0.21 0.02 0  0.22 0.02 0  0.23 0.02 0  0.24 0.02 0  0.25 0.02 0  0.26 0.02 0  0.27 0.02 0  0.28 0.02 0  0.29 0.02 0  0.3 0.02 0  0.31 0.02 0  0.32 0.02 0  0.33 0.02 0  0.34 0.02 0  0.35 0.02 0  0.36 0.02 0  0.37 0.02 0  0.38 0.02 0  0.39 0.02 0  0.4 0.02 0  0.41 0.02 0  0.42 0.02 0  0.43 0.02 0  0.44 0.02 0  0.45 0.02 0  0.46 0.02 0  0.47 0.02 0  0.48 0.02 0  0.49 0.02 0  0.5 0.02 0  0.51 0.02 0  0.52 0.02 0  0.53 0.02 0  0.54 0.02 0  0.55 0.02 0  0.5600000000000001 0.02 0  0.57 0.02 0  0.58 0.02 0  0.59 0.02 0  0.6 0.02 0  0.61 0.02 0  0.62 0.02 0  0.63 0.02 0  0.64 0.02 0  0.65 0.02 0  0.66 0.02 0  0.67 0.02 0  0.68 0.02 0  0.6899999999999999 0.02 0  0.7 0.02 0  0.71 0.02 0  0.72 0.02 0  0.73 0.02 0  0.74 0.02 0  0.75 0.02 0  0.76 0.02 0  0.77 0.02 0  0.78 0.02 0  0.79 0.02 0  0.8 0.02 0  0.8100000000000001 0.02 0  0.82 0.02 0  0.83 0.02 0  0.84 0.02 0  0.85 0.02 0  0.86 0.02 0  0.87 0.02 0  0.88 0.02 0  0.89 0.02 0  0.9 0.02 0  0.91 0.02 0  0.92 0.02 0  0.93 0.02 0  0.9399999999999999 0.02 0  0.95 0.02 0  0.96 0.02 0  0.97 0.02 0  0.98 0.02 0  0.99 0.02 0  1 0.02 0  0 0.03 0  0.01 0.03 0  0.02 0.03 0  0.03 0.03 0  0.04 0.03 0  0.05 0.03 0  0.06 0.03 0  0.07000000000000001 0.03 0  0.08 0.03 0  0.09 0.03 0  0.1 0.03 0  0.11 0.03 0  0.12 0.03 0  0.13 0.03 0  0.14 0.03 0  0.15 0.03 0  0.16 0.03 0  0.17 0.03 0  0.18 0.03 0  0.19 0.03 0  0.2 0.03 0  0.21 0.03 0  0.22 0.03 0  0.23 0.03 0  0.24 0.03 0  0.25 0.03 0  0.26 0.03 0  0.27 0.03 0  0.28 0.03 0  0.29 0.03 0  0.3 0.03 0  0.31 0.03 0  0.32 0.03 0  0.33 0.03 0  0.34 0.03 0  0.35 0.03 0  0.36 0.03 0  0.37 0.03 0  0.38 0.03 0  0.39 0.03 0  0.4 0.03 0  0.41 0.03 0  0.42 0.03 0  0.43 0.03 0  0.44 0.03 0  0.45 0.03 0  0.46 0.03 0  0.47 0.03 0  0.48 0.03 0  0.49 0.03 0  0.5 0.03 0  0.51 0.03 0  0.52 0.03 0  0.53 0.03 0  0.54 0.03 0  0.55 0.03 0  0.5600000000000001 0.03 0  0.57 0.03 0  0.58 0.03 0  0.59 0.03 0  0.6 0.03 0  0.61 0.03 0  0.62 0.03 0  0.63 0.03 0  0.64 0.03 0  0.65 0.03 0  0.66 0.03 0  0.67 0.03 0  0.68 0.03 0  0.6899999999999999 0.03 0  0.7 0.03 0  0.71 0.03 0  0.72 0.03 0  0.73 0.03 0  0.74 0.03 0  0.75 0.03 0  0.76 0.03 0  0.77 0.03 0  0.78 0.03 0  0.79 0.03 0  0.8 0.03 0  0.8100000000000001 0.03 0  0.82 0.03 0  0.83 0.03 0  0.84 0.03 0  0.85 0.03 0  0.86 0.03 0  0.87 0.03 0  0.88 0.03 0  0.89 0.03 0  0.9 0.03 0  0.91 0.03 0  0.92 0.03 0  0.93 0.03 0  0.9399999999999999 0.03 0  0.95 0.03 0  0.96 0.03 0  0.97 0.03 0  0.98 0.03 0  0.99 0.03 0  1 0.03 0  0 0.04 0  0.01 0.04 0  0.02 0.04 0  0.03 0.04 0  0.04 0.04 0  0.05 0.04 0  0.06 0.04 0  0.07000000000000001 0.04 0  0.08 0.04 0  0.09 0.04 0  0.1 0.04 0  0.11 0.04 0  0.12 0.04 0  0.13 0.04 0  0.14 0.04 0  0.15 0.04 0  0.16 0.04 0  0.17 0.04 0  0.18 0.04 0  0.19 0.04 0  0.2 0.04 0  0.21 0.04 0  0.22 0.04 0  0.23 0.04 0  0.24 0.04 0  0.25 0.04 0  0.26 0.04 0  0.27 0.04 0  0.28 0.04 0  0.29 0.04 0  0.3 0.04 0  0.31 0.04 0  0.32 0.04 0  0.33 0.04 0  0.34 0.04 0  0.35 0.04 0  0.36 0.04 0  0.37 0.04 0  0.38 0.04 0  0.39 0.04 0  0.4 0.04 0  0.41 0.04 0  0.42 0.04 0  0.43 0.04 0  0.44 0.04 0  0.45 0.04 0  0.46 0.04 0  0.47 0.04 0  0.48 0.04 0  0.49 0.04 0  0.5 0.04 0  0.51 0.04 0  0.52 0.04 0  0.53 0.04 0  0.54 0.04 0  0.55 0.04 0  0.5600000000000001 0.04 0  0.57 0.04 0  0.58 0.04 0  0.59 0.04 0  0.6 0.04 0  0.61 0.04 0  0.62 0.04 0  0.63 0.04 0  0.64 0.04 0  0.65 0.04 0  0.66 0.04 0  0.67 0.04 0  0.68 0.04 0  0.6899999999999999 0.04 0  0.7 0.04 0  0.71 0.04 0  0.72 0.04 0  0.73 0.04 0  0.74 0.04 0  0.75 0.04 0  0.76 0.04 0  0.77 0.04 0  0.78 0.04 0  0.79 0.04 0  0.8 0.04 0  0.8100000000000001 0.04 0  0.82 0.04 0  0.83 0.04 0  0.84 0.04 0  0.85 0.04 0  0.86 0.04 0  0.87 0.04 0  0.88 0.04 0  0.89 0.04 0  0.9 0.04 0  0.91 0.04 0  0.92 0.04 0  0.93 0.04 0  0.9399999999999999 0.04 0  0.95 0.04 0  0.96 0.04 0  0.97 0.04 0  0.98 0.04 0  0.99 0.04 0  1 0.04 0  0 0.05 0  0.01 0.05 0  0.02 0.05 0  0.03 0.05 0  0.04 0.05 0  0.05 0.05 0  0.06 0.05 0  0.07000000000000001 0.05 0  0.08 0.05 0  0.09 0.05 0  0.1 0.05 0  0.11 0.05 0  0.12 0.05 0  0.13 0.05 0  0.14 0.05 0  0.15 0.05 0  0.16 0.05 0  0.17 0.05 0  0.18 0.05 0  0.19 0.05 0  0.2 0.05 0  0.21 0.05 0  0.22 0.05 0  0.23 0.05 0  0.24 0.05 0  0.25 0.05 0  0.26 0.05 0  0.27 0.05 0  0.28 0.05 0  0.29 0.05 0  0.3 0.05 0  0.31 0.05 0  0.32 0.05 0  0.33 0.05 0  0.34 0.05 0  0.35 0.05 0  0.36 0.05 0  0.37 0.05 0  0.38 0.05 0  0.39 0.05 0  0.4 0.05 0  0.41 0.05 0  0.42 0.05 0  0.43 0.05 0  0.44 0.05 0  0.45 0.05 0  0.46 0.05 0  0.47 0.05 0  0.48 0.05 0  0.49 0.05 0  0.5 0.05 0  0.51 0.05 0  0.52 0.05 0  0.53 0.05 0  0.54 0.05 0  0.55 0.05 0  0.5600000000000001 0.05 0  0.57 0.05 0  0.58 0.05 0  0.59 0.05 0  0.6 0.05 0  0.61 0.05 0  0.62 0.05 0  0.63 0.05 0  0.64 0.05 0  0.65 0.05 0  0.66 0.05 0  0.67 0.05 0  0.68 0.05 0  0.6899999999999999 0.05 0  0.7 0.05 0  0.71 0.05 0  0.72 0.05 0  0.73 0.05 0  0.74 0.05 0  0.75 0.05 0  0.76 0.05 0  0.77 0.05 0  0.78 0.05 0  0.79 0.05 0  0.8 0.05 0  0.8100000000000001 0.05 0  0.82 0.05 0  0.83 0.05 0  0.84 0.05 0  0.85 0.05 0  0.86 0.05 0  0.87 0.05 0  0.88 0.05 0  0.89 0.05 0  0.9 0.05 0  0.91 0.05 0  0.92 0.05 0  0.93 0.05 0  0.9399999999999999 0.05 0  0.95 0.05 0  0.96 0.05 0  0.97 0.05 0  0.98 0.05 0  0.99 0.05 0  1 0.05 0  0 0.06 0  0.01 0.06 0  0.02 0.06 0  0.03 0.06 0  0.04 0.06 0  0.05 0.06 0  0.06 0.06 0  0.07000000000000001 0.06 0  0.08 0.06 0  0.09 0.06 0  0.1 0.06 0  0.11 0.06 0  0.12 0.06 0  0.13 0.06 0  0.14 0.06 0  0.15 0.06 0  0.16 0.06 0  0.17 0.06 0  0.18 0.06 0  0.19 0.06 0  0.2 0.06 0  0.21 0.06 0  0.22 0.06 0  0.23 0.06 0  0.24 0.06 0  0.25 0.06 0  0.26 0.06 0  0.27 0.06 0  0.28 0.06 0  0.29 0.06 0  0.3 0.06 0  0.31 0.06 0  0.32 0.06 0  0.33 0.06 0  0.34 0.06 0  0.35 0.06 0  0.36 0.06 0  0.37 0.06 0  0.38 0.06 0  0.39 0.06 0  0.4 0.06 0  0.41 0.06 0  0.42 0.06 0  0.43 0.06 0  0.44 0.06 0  0.45 0.06 0  0.46 0.06 0  0.47 0.06 0  0.48 0.06 0  0.49 0.06 0  0.5 0.06 0  0.51 0.06 0  0.52 0.06 0  0.53 0.06 0  0.54 0.06 0  0.55 0.06 0  0.5600000000000001 0.06 0  0.57 0.06 0  0.58 0.06 0  0.59 0.06 0  0.6 0.06 0  0.61 0.06 0  0.62 0.06 0  0.63 0.06 0  0.64 0.06 0  0.65 0.06 0  0.66 0.06 0  0.67 0.06 0  0.68 0.06 0  0.6899999999999999 0.06 0  0.7 0.06 0  0.71 0.06 0  0.72 0.06 0  0.73 0.06 0  0.74 0.06 0  0.75 0.06 0  0.76 0.06 0  0.77 0.06 0  0.78 0.06 0  0.79 0.06 0  0.8 0.06 0  0.8100000000000001 0.06 0  0.82 0.06 0  0.83 0.06 0  0.84 0.06 0  0.85 0.06 0  0.86 0.06 0  0.87 0.06 0  0.88 0.06 0  0.89 0.06 0  0.9 0.06 0  0.91 0.06 0  0.92 0.06 0  0.93 0.06 0  0.9399999999999999 0.06 0  0.95 0.06 0  0.96 0.06 0  0.97 0.06 0  0.98 0.06 0  0.99 0.06 0  1 0.06 0  0 0.07000000000000001 0  0.01 0.07000000000000001 0  0.02 0.07000000000000001 0  0.03 0.07000000000000001 0  0.04 0.07000000000000001 0  0.05 0.07000000000000001 0  0.06 0.07000000000000001 0  0.07000000000000001 0.07000000000000001 0  0.08 0.07000000000000001 0  0.09 0.07000000000000001 0  0.1 0.07000000000000001 0  0.11 0.07000000000000001 0  0.12 0.07000000000000001 0  0.13 0.07000000000000001 0  0.14 0.07000000000000001 0  0.15 0.07000000000000001 0  0.16 0.07000000000000001 0  0.17 0.0700
[...]
<PointData  Scalars="f_17"> 
<DataArray  type="Float64"  Name="f_17"  format="ascii">0.0000000000000000e+00  5.0000000000000000e+01  5.0000000000000000e+01  5.0000000000000000e+01  5.0000000000000000e+01  5.0000000000000000e+01  5.0000000000000000e+01  5.0000000000000000e+01  5.0000000000000000e+01  5.0000000000000000e+01  5.0000000000000000e+01  5.0000000000000000e+01  5.0000000000000000e+01  5.0000000000000000e+01  5.0000000000000000e+01  5.0000000000000000e+01  5.0000000000000000e+01  5.0000000000000000e+01  5.0000000000000000e+01  5.0000000000000000e+01  5.0000000000000000e+01  5.0000000000000000e+01  5.0000000000000000e+01  5.0000000000000000e+01  5.0000000000000000e+01  5.0000000000000000e+01  5.0000000000000000e+01  5.0000000000000000e+01  5.0000000000000000e+01  5.0000000000000000e+01  5.0000000000000000e+01  5.0000000000000000e+01  5.0000000000000000e+01  5.0000000000000000e+01  5.0000000000000000e+01  5.0000000000000000e+01  5.0000000000000000e+01  5.0000000000000000e+01  5.0000000000000000e+01  5.0000000000000000e+01  5.0000000000000000e+01  5.0000000000000000e+01  5.0000000000000000e+01  5.0000000000000000e+01  5.0000000000000000e+01  5.0000000000000000e+01  5.0000000000000000e+01  5.0000000000000000e+01  5.0000000000000000e+01  5.0000000000000000e+01  5.0000000000000000e+01  5.0000000000000000e+01  5.0000000000000000e+01  5.0000000000000000e+01  5.0000000000000000e+01  5.0000000000000000e+01  5.0000000000000000e+01  5.0000000000000000e+01  5.0000000000000000e+01  5.0000000000000000e+01  5.0000000000000000e+01  5.0000000000000000e+01  5.0000000000000000e+01  5.0000000000000000e+01  5.0000000000000000e+01  5.0000000000000000e+01  5.0000000000000000e+01  5.0000000000000000e+01  5.0000000000000000e+01  5.0000000000000000e+01  5.0000000000000000e+01  5.0000000000000000e+01  5.0000000000000000e+01  5.0000000000000000e+01  5.0000000000000000e+01  5.0000000000000000e+01  5.0000000000000000e+01  5.0000000000000000e+01  5.0000000000000000e+01  5.0000000000000000e+01  5.0000000000000000e+01  5.0000000000000000e+01  5.0000000000000000e+01  5.0000000000000000e+01  5.0000000000000000e+01  5.0000000000000000e+01  5.0000000000000000e+01  5.0000000000000000e+01  5.0000000000000000e+01  5.0000000000000000e+01  5.0000000000000000e+01  5.0000000000000000e+01  5.0000000000000000e+01  5.0000000000000000e+01  5.0000000000000000e+01  5.0000000000000000e+01  5.0000000000000000e+01  5.0000000000000000e+01  5.0000000000000000e+01  5.0000000000000000e+01  0.0000000000000000e+00  0.0000000000000000e+00  2.4780085420041591e+01  3.4815435584419021e+01  3.9107117411436818e+01  4.1339057986899064e+01  4.2649148930599821e+01  4.3478534724409428e+01  4.4029857265997158e+01  4.4408404594732175e+01  4.4674058102762558e+01  4.4863254510347645e+01  4.4999327237054793e+01  4.5097810085146349e+01  4.5169352908555531e+01  4.5221419804691003e+01  4.5259327666180504e+01  4.5286908213261540e+01  4.5306945086287371e+01  4.5321471012060279e+01  4.5331974741867270e+01  4.5339547933421265e+01  4.5344990946957914e+01  4.5348889876184174e+01  4.5351673057811347e+01  4.5353652724467103e+01  4.5355055784376333e+01  4.5356046582917038e+01  4.5356743723556797e+01  4.5357232476926740e+01  4.5357573911719150e+01  4.5357811592108014e+01  4.5357976472480111e+01  4.5358090460645492e+01  4.5358169001011355e+01  4.5358222939279536e+01  4.5358259862661612e+01  4.5358285058930640e+01  4.5358302199726609e+01  4.5358313825297792e+01  4.5358321686913762e+01  4.5358326987725448e+01  4.5358330551490944e+01  4.5358332940288022e+01  4.5358334536303062e+01  4.5358335598422208e+01  4.5358336301213157e+01  4.5358336761632728e+01  4.5358337057191285e+01  4.5358337238158832e+01  4.5358337335578270e+01  4.5358337366264514e+01  4.5358337335531473e+01  4.5358337238057644e+01  4.5358337057019689e+01  4.5358336761363688e+01  4.5358336300804858e+01  4.5358335597811930e+01  4.5358334535398747e+01  4.5358332938955776e+01  4.5358330549536923e+01  4.5358326984871120e+01  4.5358321682760554e+01  4.5358313819278656e+01  4.5358302191038348e+01  4.5358285046441942e+01  4.5358259844787582e+01  4.5358222913812618e+01  4.5358168964895171e+01  4.5358090409675079e+01  4.5357976400908854e+01  4.5357811492137458e+01  4.5357573772844844e+01  4.5357232285110321e+01  4.5356743460193464e+01  4.5356046223568597e+01  4.5355055297245194e+01  4.5353652068597967e+01  4.5351672181025258e+01  4.5348888712777722e+01  4.5344989415240413e+01  4.5339545933214353e+01  4.5331972152156609e+01  4.5321467689061741e+01  4.5306940862269315e+01  4.5286902896534791e+01  4.5259321042715271e+01  4.5221411641825846e+01  4.5169342961198190e+01  4.5097798104703237e+01  4.4999312983040269e+01  4.4863237764195851e+01  4.4674038682780605e+01  4.4408382370403537e+01  4.4029832168939542e+01  4.3478506752092002e+01  4.2649118136849808e+01  4.1339024447893692e+01  3.9107081136717504e+01  3.4815396254573621e+01  2.4780041338617618e+01  0.0000000000000000e+00  0.0000000000000000e+00  1.4311453485274257e+01  2.4133410255718200e+01  2.9993082545346709e+01  3.3534533440325831e+01  3.5776593861471078e+01  3.7256967948608875e+01  3.8266416939194762e+01  3.8971068621258347e+01  3.9471201677537607e+01  3.9830291278955798e+01  4.0090112926232678e+01  4.0279028230629990e+01  4.0416764094369782e+01  4.0517297211596954e+01  4.0590666796278597e+01  4.0644154956635461e+01  4.0683079278372340e+01  4.0711339024836185e+01  4.0731799678553394e+01  4.0746568318954942e+01  4.0757193413461451e+01  4.0764811152928651e+01  4.0770253328846245e+01  4.0774127172112692e+01  4.0776874550442265e+01  4.0778815869701845e+01  4.0780182595819312e+01  4.0781141296423648e+01  4.0781811362913608e+01  4.0782278029664397e+01  4.0782601901977273e+01  4.0782825900524905e+01  4.0782980301210188e+01  4.0783086376780730e+01  4.0783159016462328e+01  4.0783208602050422e+01  4.0783242345563004e+01  4.0783265238815410e+01  4.0783280724599280e+01  4.0783291169073401e+01  4.0783298192856869e+01  4.0783302902133883e+01  4.0783306049303363e+01  4.0783308144185689e+01  4.0783309530654961e+01  4.0783310439163564e+01  4.0783311022477406e+01  4.0783311379696713e+01  4.0783311572030748e+01  4.0783311632640697e+01  4.0783311572010724e+01  4.0783311379653036e+01  4.0783311022402572e+01  4.0783310439044833e+01  4.0783309530472195e+01  4.0783308143908251e+01  4.0783306048885656e+01  4.0783302901508357e+01  4.0783298191924146e+01  4.0783291167687928e+01  4.0783280722549392e+01  4.0783265235794381e+01  4.0783242341128613e+01  4.0783208595568603e+01  4.0783159007028665e+01  4.0783086363112957e+01  4.0782980281500599e+01  4.0782825872241339e+01  4.0782601861596625e+01  4.0782277972318475e+01  4.0781811281926096e+01  4.0781141182710051e+01  4.0780182437121965e+01  4.0778815649628399e+01  4.0776874247279039e+01  4.0774126757389745e+01  4.0770252765642518e+01  4.0764810393926354e+01  4.0757192398789634e+01  4.0746566973905885e+01  4.0731797911312270e+01  4.0711336724432442e+01  4.0683076313138685e+01  4.0644151173534325e+01  4.0590662021513801e+01  4.0517291252945974e+01  4.0416756745622777e+01  4.0279019278365453e+01  4.0090102158863843e+01  3.9830278497509894e+01  3.9471186706955955e+01  3.8971051320118391e+01  3.8266397204625356e+01  3.7256945711717179e+01  3.5776569066528253e+01  3.3534505997609529e+01  2.9993052243260948e+01  2.4133376633568901e+01  1.4311415941546837e+01  0.0000000000000000e+00  0.0000000000000000e+00  9.5993616187329884e+00  1.7439199408957968e+01  2.3097931568278621e+01  2.7002361564875851e+01  2.9688340086633719e+01  3.1557686088462692e+01  3.2877200059151818e+01  3.3820307400518743e+01  3.4500998477092899e+01  3.4995774844317921e+01  3.5357118648880473e+01  3.5621754014573092e+01  3.5815806278718703e+01  3.5958104916750287e+01  3.6062354853488273e+01  3.6138600962022807e+01  3.6194239254159136e+01  3.6234729489043730e+01  3.6264106006011723e+01  3.6285348935475064e+01  3.6300656750004727e+01  3.6311647851741995e+01  3.6319510381187229e+01  3.6325113830981735e+01  3.6329092265475630e+01  3.6331906327167431e+01  3.6333889354003894e+01  3.6335281587756647e+01  3.6336255464774169e+01  3.6336934243119771e+01  3.6337405665379620e+01  3.6337731936690858e+01  3.6337956979095047e+01  3.6338111681651121e+01  3.6338217682624354e+01  3.6338290081722903e+01  3.6338339376249166e+01  3.6338372837057918e+01  3.6338395482104211e+01  3.6338410762298047e+01  3.6338421042634963e+01  3.6338427938303788e+01  3.6338432548508841e+01  3.6338435618444670e+01  3.6338437650988517e+01  3.6338438983303448e+01  3.6338439838986567e+01  3.6338440363140073e+01  3.6338440645414146e+01  3.6338440734389877e+01  3.6338440645430673e+01  3.6338440363174989e+01  3.6338439839043829e+01  3.6338438983389274e+01  3.6338437651111924e+01  3.6338435618617901e+01  3.6338432548747967e+01  3.6338427938629252e+01  3.6338421043071790e+01  3.6338410762875633e+01  3.6338395482854807e+01  3.6338372838013065e+01  3.6338339377433002e+01  3.6338290083139604e+01  3.6338217684237407e+01  3.6338111683349148e+01  3.6337956980638609e+01  3.6337731937630714e+01  3.6337405664934757e+01  3.6336934239999238e+01  3.6336255456921656e+01  3.6335281571991885e+01  3.6333889325528588e+01  3.6331906278898451e+01  3.6329092187163660e+01  3.6325113708072251e+01  3.6319510193384509e+01  3.6311647571248557e+01  3.6300656339430837e+01  3.6285348345450188e+01  3.6264105172585673e+01  3.6234728331037275e+01  3.6194237670715701e+01  3.6138598830712731e+01  3.6062352029411805e+01  3.5958101233149414e+01  3.5815801549607528e+01  3.5621748039780336e+01  3.5357111221619654e+01  3.4995765760903943e+01  3.4500987547678093e+01  3.3820294458713981e+01  3.2877184967173335e+01  3.1557668733106485e+01  2.9688320360206045e+01  2.7002339325131928e+01  2.3097906576008977e+01  1.7439171261259695e+01  9.5993296990232686e+00  0.0000000000000000e+00  0.0000000000000000e+00  6.9655363437470603e+00  1.3099958113079643e+01  1.8011464307043006e+01  2.1732165176811765e+01  2.4480701577407913e+01  2.6494560233959859e+01  2.7969546978410449e+01  2.9052456896936729e+01  2.9849765361029636e+01  3.0438119510048026e+01  3.0872857422690998e+01  3.1194201006814378e+01  3.1431598696457410e+01  3.1606749809034007e+01  3.1735723279545873e+01  3.1830458926164269e+01  3.1899845137367109e+01  3.1950502279567210e+01  3.1987358472548081e+01  3.2014076525253166e+01  3.2033372591042976e+01  3.2047255042172992e+01  3.2057203961721932e+01  3.2064306103656648e+01  3.2069356292714197e+01  3.2072933465618171e+01  3.2075457537415232e+01  3.2077231781673227e+01  3.2078474290235036e+01  3.2079341226120292e+01  3.2079943932452124e+01  3.2080361461716429e+01  3.2080649707400845e+01  3.2080848027379375e+01  3.2080984024972075e+01  3.2081076983733169e+01  3.2081140323494402e+01  3.2081183348471264e+01  3.2081212485875625e+01  3.2081232159653133e+01  3.2081245404165173e+01  3.2081254293384539e+01  3.2081260239796549e+01  3.2081264201663330e+01  3.2081266826080750e+01  3.2081268547178851e+01  3.2081269653026638e+01  3.2081270330660388e+01  3.2081270695687898e+01  3.2081270810776488e+01  3.2081270695749282e+01  3.2081270330791590e+01  3.2081269653245492e+01  3.2081268547514739e+01  3.2081266826577739e+01  3.2081264202385299e+01  3.2081260240833814e+01  3.2081254294863008e+01  3.2081245406258631e+01  3.2081232162599214e+01  3.2081212489996076e+01  3.2081183354197712e+01  3.2081140331400007e+01  3.2081076994570573e+01  3.2080984039717279e+01  3.2080848047280568e+01  3.2080649734028910e+01  3.2080361497012149e+01  3.2079943978760383e+01  3.2079341286197874e+01  3.2078474367211520e+01  3.2077231878936175e+01  3.2075457658380785e+01  3.2072933613338392e+01  3.2069356469259937e+01  3.2064306309205179e+01  3.2057204193273613e+01  3.2047255291823525e+01  3.2033372843752701e+01  3.2014076756088969e+01  3.1987358643432245e+01  3.1950502335654928e+01  3.1899845003292299e+01  3.1830458502537148e+01  3.1735722440238430e+01  3.1606748399925994e+01  3.1431596536388579e+01  3.1194197891438908e+01  3.0872853131690199e+01  3.0438113817653541e+01  2.9849758049003942e+01  2.9052447768049433e+01  2.7969535867147922e+01  2.6494547009958175e+01  2.4480686136402454e+01  2.1732147414653763e+01  1.8011444075675225e+01  1.3099935161343623e+01  6.9655102363388721e+00  0.0000000000000000e+00  0.0000000000000000e+00  5.2768816490026200e+00  1.0106370812955719e+01  1.4211917029442958e+01  1.7523749166001547e+01  2.0109041565319274e+01  2.2089674954161072e+01  2.3591750127638544e+01  2.4724704687684959e+01  2.5576547844227896e+01  2.6215599056057435e+01  2.6694043784999884e+01  2.7051470952658217e+01  2.7317836867358995e+01  2.7515790324194317e+01  2.7662447954939047e+01  2.7770736769642745e+01  2.7850407811113218e+01  2.7908802953377553e+01  2.7951436660838517e+01  2.7982438526151380e+01  2.8004890480355975e+01  2.8021083883382605e+01  2.8032715404899250e+01  2.8041036011448742e+01  2.8046963986434129e+01  2.8051170374766297e+01  2.8054143323087743e+01  2.8056236314185512e+01  2.8057704156098865e+01  2.8058729701883678e+01  2.8059443586819516e+01  2.8059938732921815e+01  2.8060280953198127e+01  2.8060516664758850e+01  2.8060678470650384e+01  2.8060789179219878e+01  2.8060864684255456e+01  2.8060916018947893e+01  2.8060950813841462e+01  2.8060974327018386e+01  2.8060990168793019e+01  2.8061000809285137e+01  2.8061007932388080e+01  2.8061012681531615e+01  2.8061015829514911e+01  2.8061017895217535e+01  2.8061019223197992e+01  2.8061020037315341e+01  2.8061020476012214e+01  2.8061020614363812e+01  2.8061020476124870e+01  2.8061020037556482e+01  2.8061019223601182e+01  2.8061017895838216e+01  2.8061015830436833e+01  2.8061012682876644e+01  2.8061007934329776e+01  2.8061000812067618e+01  2.8060990172756174e+01  2.8060974332631709e+01  2.8060950821748133e+01  2.8060916030022355e+01  2.8060864699676493e+01  2.8060789200562542e+01  2.8060678499999234e+01  2.8060516704844257e+01  2.8060281007556028e+01  2.8059938806074502e+01  2.8059443684470622e+01  2.8058729831114675e+01  2.8057704325545195e+01  2.8056236534159321e+01  2.8054143605599275e+01  2.8051170733379287e+01  2.8046964435870819e+01  2.8041036566842276e+01  2.8032716080575891e+01  2.8021084691050227e+01  2.8004891426584443e+01  2.7982439609064631e+01  2.7951437866004397e+01  2.7908804248990077e+01  2.7850409142716281e+01  2.7770738054841686e+01  2.7662449078771925e+01  2.7515791136054634e+01  2.7317837180523544e+01  2.7051470547501758e+01  2.6694042416784708e+01  2.6215596467682794e+01  2.5576543783457687e+01  2.4724698927153558e+01  2.3591742484504778e+01  2.2089665304937622e+01  2.0109029850644689e+01  1.7523735380529011e+01  1.4211901193812775e+01  1.0106352926917690e+01  5.2768616256684489e+00  0.0000000000000000e+00  0.0000000000000000e+00  4.0960212180809892e+00  7.9282116578353747e+00  1.1308546455178538e+01  1.4154137593643741e+01  1.6469221091680748e+01  1.8308781549788428e+01  1.9747346328018743e+01  2.0860100502678485e+01  2.1714125643595303e+01  2.2365645399144071e+01  2.2860183069098980e+01  2.3233865276172004e+01  2.3515010513828511e+01  2.3725636433726798e+01  2.3882759580566677e+01  2.3999466568300445e+01  2.4085776457693417e+01  2.4149326146032923e+01  2.4195910911682020e+01  2.4229908478159551e+01  2.4254610263814286e+01  2.4272479068760866e+01  2.4285348680835686e+01  2.4294577785913472e+01  2.4301168063456078e+01  2.4305854332135372e+01  2.4309172988450449e+01  2.4311513676047614e+01  2.4313158073648626e+01  2.4314308846797299e+01  2.4315111134572458e+01  2.4315668405879144e+01  2.4316054095406820e+01  2.4316320095711152e+01  2.4316502921566563e+01  2.4316628161167767e+01  2.4316713673860310e+01  2.4316771875958690e+01  2.4316811366808114e+01  2.4316838080079737e+01  2.4316856095188797e+01  2.4316868206611034e+01  2.4316876321564745e+01  2.4316881736552695e+01  2.4316885328742273e+01  2.4316887687662437e+01  2.4316889205135364e+01  2.4316890135928055e+01  2.4316890637700226e+01  2.4316890795989170e+01  2.4316890637868411e+01  2.4316890136288141e+01  2.4316889205737834e+01  2.4316887688590604e+01  2.4316885330122268e+01  2.4316881738568263e+01  2.4316876324478070e+01  2.4316868210791608e+01  2.4316856101152396e+01  2.4316838088540699e+01  2.4316811378748103e+01  2.4316771892717025e+01  2.4316713697249607e+01  2.4316628193621000e+01  2.4316502966320581e+01  2.4316320157031353e+01  2.4316054178856270e+01  2.4315668518632073e+01  2.4315111285767578e+01  2.4314309047917764e+01  2.4313158338904998e+01  2.4311514022724538e+01  2.4309173437158826e+01  2.4305854906887582e+01  2.4301168791455805e+01  2.4294578696923960e+01  2.4285349805967218e+01  2.4272480438504378e+01  2.4254611905153691e+01  2.4229910410631071e+01  2.4195913142327406e+01  2.4149328663325505e+01  2.4085779224711345e+01  2.3999469515675589e+01  2.3882762600037832e+01  2.3725639373430504e+01  2.3515013176710674e+01  2.3233867423005957e+01  2.2860184427445766e+01  2.2365645679084274e+01  2.1714124560129349e+01  2.0860097803348996e+01  1.9747341822702509e+01  1.8308775138049441e+01  1.6469212782042902e+01  1.4154127509134668e+01  1.1308534820833119e+01  7.9281987685618454e+00  4.0960073898294942e+00  0.0000000000000000e+00  0.0000000000000000e+00  3.2229655302016464e+00  6.2799854880715786e+00  9.0423568730008448e+00  1.1437759808454919e+01  1.3447668099706844e+01  1.5092015305934650e+01  1.6411878713238540e+01  1.7456105494147469e+01  1.8273073720632659e+01  1.8906526395274334e+01  1.9393996260412870e+01  1.9766652807146315e+01  2.0049826833673595e+01  2.0263792736458576e+01  2.0424593097667703e+01  2.0544805902322075e+01  2.0634215815820433e+01  2.0700381249555345e+01  2.0749102850827601e+01  2.0784804611225134e+01  2.0810840266564259e+01  2.0829737255569455e+01  2.0843389309989945e+01  2.0853207298746764e+01  2.0860236493242382e+01  2.0865247071111451e+01  2.0868803474728406e+01  2.0871317199459529e+01  2.0873086700232761e+01  2.0874327361585369e+01  2.0875193860943490e+01  2.0875796751528252e+01  2.0876214684220383e+01  2.0876503362080335e+01  2.0876702063424926e+01  2.0876838367301367e+01  2.0876931558335876e+01  2.0876995067269171e+01  2.0877038211481899e+01  2.0877067430238476e+01  2.0877087157185699e+01  2.0877100433785390e+01  2.0877109338639112e+01  2.0877115286574970e+01  2.0877119235981461e+01  2.0877121831709232e+01  2.0877123502797183e+01  2.0877124528468421e+01  2.0877125081648749e+01  2.0877125256210093e+01  2.0877125081874439e+01  2.0877124528951683e+01  2.0877123503605745e+01  2.0877121832954931e+01  2.0877119237833679e+01  2.0877115289280447e+01  2.0877109342550103e+01  2.0877100439398546e+01  2.0877087165194641e+01  2.0877067441604385e+01  2.0877038227526903e+01  2.0876995089798491e+01  2.0876931589795529e+01  2.0876838410978824e+01  2.0876702123700813e+01  2.0876503444738326e+01  2.0876214796821035e+01  2.0875796903849061e+01  2.0875194065481363e+01  2.0874327634108472e+01  2.0873087060354759e+01  2.0871317671190926e+01  2.0868804086935512e+01  2.0865247857783757e+01  2.0860237493435800e+01  2.0853208556035238e+01  2.0843390871227431e+01  2.0829739168744752e+01  2.0810842577534761e+01  2.0784807359155518e+01  2.0749106062250249e+01  2.0700384931126763e+01  2.0634219946081341e+01  2.0544810423076726e+01  2.0424597905964305e+01  2.0263797678533042e+01  2.0049831702541471e+01  1.9766657345691854e+01  1.9394000171706288e+01  1.8906529361330335e+01  1.8273075429826850e+01  1.7456105676042064e+01  1.6411877177786014e+01  1.5092011982247273e+01  1.3447663068272611e+01  1.1437753320372895e+01  9.0423493509499657e+00  6.2799775065784758e+00  3.2229577777463509e+00  0.0000000000000000e+00  0.0000000000000000e+00  2.5539546449496688e+00  4.9986012262390851e+00  7.2444304575706155e+00  9.2337442080080070e+00  1.0942214148365245e+01  1.2372722929417348e+01  1.3546201458299132e+01  1.4493070145502170e+01  1.5246886168103213e+01  1.5840342772728031e+01  1.6303123518292310e+01  1.6661001849013658e+01  1.6935686129904408e+01  1.7145064660481328e+01  1.7303634785323609e+01  1.7422990861416665e+01  1.7512303457168834e+01  1.7578756650966945e+01  1.7627930041095354e+01  1.7664122899371005e+01  1.7690623497171952e