<?xml version="1.0"?>
<VTKFile type="UnstructuredGrid"  version="0.1"  >
<UnstructuredGrid>
<Piece  NumberOfPoints="10201" NumberOfCells="20000">
<Points>
<DataArray  type="Float64"  NumberOfComponents="3"  format="ascii">0 0 0  0.01 0 0  0.02 0 0  0.03 0 0  0.04 0 0  0.05 0 0  0.06 0 0  0.07000000000000001 0 0  0.08 0 0  0.09 0 0  0.1 0 0  0.11 0 0  0.12 0 0  0.13 0 0  0.14 0 0  0.15 0 0  0.16 0 0  0.17 0 0  0.18 0 0  0.19 0 0  0.2 0 0  0.21 0 0  0.22 0 0  0.23 0 0  0.24 0 0  0.25 0 0  0.26 0 0  0.27 0 0  0.28 0 0  0.29 0 0  0.3 0 0  0.31 0 0  0.32 0 0  0.33 0 0  0.34 0 0  0.35 0 0  0.36 0 0  0.37 0 0  0.38 0 0  0.39 0 0  0.4 0 0  0.41 0 0  0.42 0 0  0.43 0 0  0.44 0 0  0.45 0 0  0.46 0 0  0.47 0 0  0.48 0 0  0.49 0 0  0.5 0 0  0.51 0 0  0.52 0 0  0.53 0 0  0.54 0 0  0.55 0 0  0.5600000000000001 0 0  0.57 0 0  0.58 0 0  0.59 0 0  0.6 0 0  0.61 0 0  0.62 0 0  0.63 0 0  0.64 0 0  0.65 0 0  0.66 0 0  0.67 0 0  0.68 0 0  0.6899999999999999 0 0  0.7 0 0  0.71 0 0  0.72 0 0  0.73 0 0  0.74 0 0  0.75 0 0  0.76 0 0  0.77 0 0  0.78 0 0  0.79 0 0  0.8 0 0  0.8100000000000001 0 0  0.82 0 0  0.83 0 0  0.84 0 0  0.85 0 0  0.86 0 0  0.87 0 0  0.88 0 0  0.89 0 0  0.9 0 0  0.91 0 0  0.92 0 0  0.93 0 0  0.9399999999999999 0 0  0.95 0 0  0.96 0 0  0.97 0 0  0.98 0 0  0.99 0 0  1 0 0  0 0.01 0  0.01 0.01 0  0.02 0.01 0  0.03 0.01 0  0.04 0.01 0  0.05 0.01 0  0.06 0.01 0  0.07000000000000001 0.01 0  0.08 0.01 0  0.09 0.01 0  0.1 0.01 0  0.11 0.01 0  0.12 0.01 0  0.13 0.01 0  0.14 0.01 0  0.15 0.01 0  0.16 0.01 0  0.17 0.01 0  0.18 0.01 0  0.19 0.01 0  0.2 0.01 0  0.21 0.01 0  0.22 0.01 0  0.23 0.01 0  0.24 0.01 0  0.25 0.01 0  0.26 0.01 0  0.27 0.01 0  0.28 0.01 0  0.29 0.01 0  0.3 0.01 0  0.31 0.01 0  0.32 0.01 0  0.33 0.01 0  0.34 0.01 0  0.35 0.01 0  0.36 0.01 0  0.37 0.01 0  0.38 0.01 0  0.39 0.01 0  0.4 0.01 0  0.41 0.01 0  0.42 0.01 0  0.43 0.01 0  0.44 0.01 0  0.45 0.01 0  0.46 0.01 0  0.47 0.01 0  0.48 0.01 0  0.49 0.01 0  0.5 0.01 0  0.51 0.01 0  0.52 0.01 0  0.53 0.01 0  0.54 0.01 0  0.55 0.01 0  0.5600000000000001 0.01 0  0.57 0.01 0  0.58 0.01 0  0.59 0.01 0  0.6 0.01 0  0.61 0.01 0  0.62 0.01 0  0.63 0.01 0  0.64 0.01 0  0.65 0.01 0  0.66 0.01 0  0.67 0.01 0  0.68 0.01 0  0.6899999999999999 0.01 0  0.7 0.01 0  0.71 0.01 0  0.72 0.01 0  0.73 0.01 0  0.74 0.01 0  0.75 0.01 0  0.76 0.01 0  0.77 0.01 0  0.78 0.01 0  0.79 0.01 0  0.8 0.01 0  0.8100000000000001 0.01 0  0.82 0.01 0  0.83 0.01 0  0.84 0.01 0  0.85 0.01 0  0.86 0.01 0  0.87 0.01 0  0.88 0.01 0  0.89 0.01 0  0.9 0.01 0  0.91 0.01 0  0.92 0.01 0  0.93 0.01 0  0.9399999999999999 0.01 0  0.95 0.01 0  0.96 0.01 0  0.97 0.01 0  0.98 0.01 0  0.99 0.01 0  1 0.01 0  0 0.02 0  0.01 0.02 0  0.02 0.02 0  0.03 0.02 0  0.04 0.02 0  0.05 0.02 0  0.06 0.02 0  0.07000000000000001 0.02 0  0.08 0.02 0  0.09 0.02 0  0.1 0.02 0  0.11 0.02 0  0.12 0.02 0  0.13 0.02 0  0.14 0.02 0  0.15 0.02 0  0.16 0.02 0  0.17 0.02 0  0.18 0.02 0  0.19 0.02 0  0.2 0.02 0  0.21 0.02 0  0.22 0.02 0  0.23 0.02 0  0.24 0.02 0  0.25 0.02 0  0.26 0.02 0  0.27 0.02 0  0.28 0.02 0  0.29 0.02 0  0.3 0.02 0  0.31 0.02 0  0.32 0.02 0  0.33 0.02 0  0.34 0.02 0  0.35 0.02 0  0.36 0.02 0  0.37 0.02 0  0.38 0.02 0  0.39 0.02 0  0.4 0.02 0  0.41 0.02 0  0.42 0.02 0  0.43 0.02 0  0.44 0.02 0  0.45 0.02 0  0.46 0.02 0  0.47 0.02 0  0.48 0.02 0  0.49 0.02 0  0.5 0.02 0  0.51 0.02 0  0.52 0.02 0  0.53 0.02 0  0.54 0.02 0  0.55 0.02 0  0.5600000000000001 0.02 0  0.57 0.02 0  0.58 0.02 0  0.59 0.02 0  0.6 0.02 0  0.61 0.02 0  0.62 0.02 0  0.63 0.02 0  0.64 0.02 0  0.65 0.02 0  0.66 0.02 0  0.67 0.02 0  0.68 0.02 0  0.6899999999999999 0.02 0  0.7 0.02 0  0.71 0.02 0  0.72 0.02 0  0.73 0.02 0  0.74 0.02 0  0.75 0.02 0  0.76 0.02 0  0.77 0.02 0  0.78 0.02 0  0.79 0.02 0  0.8 0.02 0  0.8100000000000001 0.02 0  0.82 0.02 0  0.83 0.02 0  0.84 0.02 0  0.85 0.02 0  0.86 0.02 0  0.87 0.02 0  0.88 0.02 0  0.89 0.02 0  0.9 0.02 0  0.91 0.02 0  0.92 0.02 0  0.93 0.02 0  0.9399999999999999 0.02 0  0.95 0.02 0  0.96 0.02 0  0.97 0.02 0  0.98 0.02 0  0.99 0.02 0  1 0.02 0  0 0.03 0  0.01 0.03 0  0.02 0.03 0  0.03 0.03 0  0.04 0.03 0  0.05 0.03 0  0.06 0.03 0  0.07000000000000001 0.03 0  0.08 0.03 0  0.09 0.03 0  0.1 0.03 0  0.11 0.03 0  0.12 0.03 0  0.13 0.03 0  0.14 0.03 0  0.15 0.03 0  0.16 0.03 0  0.17 0.03 0  0.18 0.03 0  0.19 0.03 0  0.2 0.03 0  0.21 0.03 0  0.22 0.03 0  0.23 0.03 0  0.24 0.03 0  0.25 0.03 0  0.26 0.03 0  0.27 0.03 0  0.28 0.03 0  0.29 0.03 0  0.3 0.03 0  0.31 0.03 0  0.32 0.03 0  0.33 0.03 0  0.34 0.03 0  0.35 0.03 0  0.36 0.03 0  0.37 0.03 0  0.38 0.03 0  0.39 0.03 0  0.4 0.03 0  0.41 0.03 0  0.42 0.03 0  0.43 0.03 0  0.44 0.03 0  0.45 0.03 0  0.46 0.03 0  0.47 0.03 0  0.48 0.03 0  0.49 0.03 0  0.5 0.03 0  0.51 0.03 0  0.52 0.03 0  0.53 0.03 0  0.54 0.03 0  0.55 0.03 0  0.5600000000000001 0.03 0  0.57 0.03 0  0.58 0.03 0  0.59 0.03 0  0.6 0.03 0  0.61 0.03 0  0.62 0.03 0  0.63 0.03 0  0.64 0.03 0  0.65 0.03 0  0.66 0.03 0  0.67 0.03 0  0.68 0.03 0  0.6899999999999999 0.03 0  0.7 0.03 0  0.71 0.03 0  0.72 0.03 0  0.73 0.03 0  0.74 0.03 0  0.75 0.03 0  0.76 0.03 0  0.77 0.03 0  0.78 0.03 0  0.79 0.03 0  0.8 0.03 0  0.8100000000000001 0.03 0  0.82 0.03 0  0.83 0.03 0  0.84 0.03 0  0.85 0.03 0  0.86 0.03 0  0.87 0.03 0  0.88 0.03 0  0.89 0.03 0  0.9 0.03 0  0.91 0.03 0  0.92 0.03 0  0.93 0.03 0  0.9399999999999999 0.03 0  0.95 0.03 0  0.96 0.03 0  0.97 0.03 0  0.98 0.03 0  0.99 0.03 0  1 0.03 0  0 0.04 0  0.01 0.04 0  0.02 0.04 0  0.03 0.04 0  0.04 0.04 0  0.05 0.04 0  0.06 0.04 0  0.07000000000000001 0.04 0  0.08 0.04 0  0.09 0.04 0  0.1 0.04 0  0.11 0.04 0  0.12 0.04 0  0.13 0.04 0  0.14 0.04 0  0.15 0.04 0  0.16 0.04 0  0.17 0.04 0  0.18 0.04 0  0.19 0.04 0  0.2 0.04 0  0.21 0.04 0  0.22 0.04 0  0.23 0.04 0  0.24 0.04 0  0.25 0.04 0  0.26 0.04 0  0.27 0.04 0  0.28 0.04 0  0.29 0.04 0  0.3 0.04 0  0.31 0.04 0  0.32 0.04 0  0.33 0.04 0  0.34 0.04 0  0.35 0.04 0  0.36 0.04 0  0.37 0.04 0  0.38 0.04 0  0.39 0.04 0  0.4 0.04 0  0.41 0.04 0  0.42 0.04 0  0.43 0.04 0  0.44 0.04 0  0.45 0.04 0  0.46 0.04 0  0.47 0.04 0  0.48 0.04 0  0.49 0.04 0  0.5 0.04 0  0.51 0.04 0  0.52 0.04 0  0.53 0.04 0  0.54 0.04 0  0.55 0.04 0  0.5600000000000001 0.04 0  0.57 0.04 0  0.58 0.04 0  0.59 0.04 0  0.6 0.04 0  0.61 0.04 0  0.62 0.04 0  0.63 0.04 0  0.64 0.04 0  0.65 0.04 0  0.66 0.04 0  0.67 0.04 0  0.68 0.04 0  0.6899999999999999 0.04 0  0.7 0.04 0  0.71 0.04 0  0.72 0.04 0  0.73 0.04 0  0.74 0.04 0  0.75 0.04 0  0.76 0.04 0  0.77 0.04 0  0.78 0.04 0  0.79 0.04 0  0.8 0.04 0  0.8100000000000001 0.04 0  0.82 0.04 0  0.83 0.04 0  0.84 0.04 0  0.85 0.04 0  0.86 0.04 0  0.87 0.04 0  0.88 0.04 0  0.89 0.04 0  0.9 0.04 0  0.91 0.04 0  0.92 0.04 0  0.93 0.04 0  0.9399999999999999 0.04 0  0.95 0.04 0  0.96 0.04 0  0.97 0.04 0  0.98 0.04 0  0.99 0.04 0  1 0.04 0  0 0.05 0  0.01 0.05 0  0.02 0.05 0  0.03 0.05 0  0.04 0.05 0  0.05 0.05 0  0.06 0.05 0  0.07000000000000001 0.05 0  0.08 0.05 0  0.09 0.05 0  0.1 0.05 0  0.11 0.05 0  0.12 0.05 0  0.13 0.05 0  0.14 0.05 0  0.15 0.05 0  0.16 0.05 0  0.17 0.05 0  0.18 0.05 0  0.19 0.05 0  0.2 0.05 0  0.21 0.05 0  0.22 0.05 0  0.23 0.05 0  0.24 0.05 0  0.25 0.05 0  0.26 0.05 0  0.27 0.05 0  0.28 0.05 0  0.29 0.05 0  0.3 0.05 0  0.31 0.05 0  0.32 0.05 0  0.33 0.05 0  0.34 0.05 0  0.35 0.05 0  0.36 0.05 0  0.37 0.05 0  0.38 0.05 0  0.39 0.05 0  0.4 0.05 0  0.41 0.05 0  0.42 0.05 0  0.43 0.05 0  0.44 0.05 0  0.45 0.05 0  0.46 0.05 0  0.47 0.05 0  0.48 0.05 0  0.49 0.05 0  0.5 0.05 0  0.51 0.05 0  0.52 0.05 0  0.53 0.05 0  0.54 0.05 0  0.55 0.05 0  0.5600000000000001 0.05 0  0.57 0.05 0  0.58 0.05 0  0.59 0.05 0  0.6 0.05 0  0.61 0.05 0  0.62 0.05 0  0.63 0.05 0  0.64 0.05 0  0.65 0.05 0  0.66 0.05 0  0.67 0.05 0  0.68 0.05 0  0.6899999999999999 0.05 0  0.7 0.05 0  0.71 0.05 0  0.72 0.05 0  0.73 0.05 0  0.74 0.05 0  0.75 0.05 0  0.76 0.05 0  0.77 0.05 0  0.78 0.05 0  0.79 0.05 0  0.8 0.05 0  0.8100000000000001 0.05 0  0.82 0.05 0  0.83 0.05 0  0.84 0.05 0  0.85 0.05 0  0.86 0.05 0  0.87 0.05 0  0.88 0.05 0  0.89 0.05 0  0.9 0.05 0  0.91 0.05 0  0.92 0.05 0  0.93 0.05 0  0.9399999999999999 0.05 0  0.95 0.05 0  0.96 0.05 0  0.97 0.05 0  0.98 0.05 0  0.99 0.05 0  1 0.05 0  0 0.06 0  0.01 0.06 0  0.02 0.06 0  0.03 0.06 0  0.04 0.06 0  0.05 0.06 0  0.06 0.06 0  0.07000000000000001 0.06 0  0.08 0.06 0  0.09 0.06 0  0.1 0.06 0  0.11 0.06 0  0.12 0.06 0  0.13 0.06 0  0.14 0.06 0  0.15 0.06 0  0.16 0.06 0  0.17 0.06 0  0.18 0.06 0  0.19 0.06 0  0.2 0.06 0  0.21 0.06 0  0.22 0.06 0  0.23 0.06 0  0.24 0.06 0  0.25 0.06 0  0.26 0.06 0  0.27 0.06 0  0.28 0.06 0  0.29 0.06 0  0.3 0.06 0  0.31 0.06 0  0.32 0.06 0  0.33 0.06 0  0.34 0.06 0  0.35 0.06 0  0.36 0.06 0  0.37 0.06 0  0.38 0.06 0  0.39 0.06 0  0.4 0.06 0  0.41 0.06 0  0.42 0.06 0  0.43 0.06 0  0.44 0.06 0  0.45 0.06 0  0.46 0.06 0  0.47 0.06 0  0.48 0.06 0  0.49 0.06 0  0.5 0.06 0  0.51 0.06 0  0.52 0.06 0  0.53 0.06 0  0.54 0.06 0  0.55 0.06 0  0.5600000000000001 0.06 0  0.57 0.06 0  0.58 0.06 0  0.59 0.06 0  0.6 0.06 0  0.61 0.06 0  0.62 0.06 0  0.63 0.06 0  0.64 0.06 0  0.65 0.06 0  0.66 0.06 0  0.67 0.06 0  0.68 0.06 0  0.6899999999999999 0.06 0  0.7 0.06 0  0.71 0.06 0  0.72 0.06 0  0.73 0.06 0  0.74 0.06 0  0.75 0.06 0  0.76 0.06 0  0.77 0.06 0  0.78 0.06 0  0.79 0.06 0  0.8 0.06 0  0.8100000000000001 0.06 0  0.82 0.06 0  0.83 0.06 0  0.84 0.06 0  0.85 0.06 0  0.86 0.06 0  0.87 0.06 0  0.88 0.06 0  0.89 0.06 0  0.9 0.06 0  0.91 0.06 0  0.92 0.06 0  0.93 0.06 0  0.9399999999999999 0.06 0  0.95 0.06 0  0.96 0.06 0  0.97 0.06 0  0.98 0.06 0  0.99 0.06 0  1 0.06 0  0 0.07000000000000001 0  0.01 0.07000000000000001 0  0.02 0.07000000000000001 0  0.03 0.07000000000000001 0  0.04 0.07000000000000001 0  0.05 0.07000000000000001 0  0.06 0.07000000000000001 0  0.07000000000000001 0.07000000000000001 0  0.08 0.07000000000000001 0  0.09 0.07000000000000001 0  0.1 0.07000000000000001 0  0.11 0.07000000000000001 0  0.12 0.07000000000000001 0  0.13 0.07000000000000001 0  0.14 0.07000000000000001 0  0.15 0.07000000000000001 0  0.16 0.07000000000000001 0  0.17 0.0700
[...]
<PointData  Scalars="f_17"> 
<DataArray  type="Float64"  Name="f_17"  format="ascii">0.0000000000000000e+00  5.0000000000000000e+01  5.0000000000000000e+01  5.0000000000000000e+01  5.0000000000000000e+01  5.0000000000000000e+01  5.0000000000000000e+01  5.0000000000000000e+01  5.0000000000000000e+01  5.0000000000000000e+01  5.0000000000000000e+01  5.0000000000000000e+01  5.0000000000000000e+01  5.0000000000000000e+01  5.0000000000000000e+01  5.0000000000000000e+01  5.0000000000000000e+01  5.0000000000000000e+01  5.0000000000000000e+01  5.0000000000000000e+01  5.0000000000000000e+01  5.0000000000000000e+01  5.0000000000000000e+01  5.0000000000000000e+01  5.0000000000000000e+01  5.0000000000000000e+01  5.0000000000000000e+01  5.0000000000000000e+01  5.0000000000000000e+01  5.0000000000000000e+01  5.0000000000000000e+01  5.0000000000000000e+01  5.0000000000000000e+01  5.0000000000000000e+01  5.0000000000000000e+01  5.0000000000000000e+01  5.0000000000000000e+01  5.0000000000000000e+01  5.0000000000000000e+01  5.0000000000000000e+01  5.0000000000000000e+01  5.0000000000000000e+01  5.0000000000000000e+01  5.0000000000000000e+01  5.0000000000000000e+01  5.0000000000000000e+01  5.0000000000000000e+01  5.0000000000000000e+01  5.0000000000000000e+01  5.0000000000000000e+01  5.0000000000000000e+01  5.0000000000000000e+01  5.0000000000000000e+01  5.0000000000000000e+01  5.0000000000000000e+01  5.0000000000000000e+01  5.0000000000000000e+01  5.0000000000000000e+01  5.0000000000000000e+01  5.0000000000000000e+01  5.0000000000000000e+01  5.0000000000000000e+01  5.0000000000000000e+01  5.0000000000000000e+01  5.0000000000000000e+01  5.0000000000000000e+01  5.0000000000000000e+01  5.0000000000000000e+01  5.0000000000000000e+01  5.0000000000000000e+01  5.0000000000000000e+01  5.0000000000000000e+01  5.0000000000000000e+01  5.0000000000000000e+01  5.0000000000000000e+01  5.0000000000000000e+01  5.0000000000000000e+01  5.0000000000000000e+01  5.0000000000000000e+01  5.0000000000000000e+01  5.0000000000000000e+01  5.0000000000000000e+01  5.0000000000000000e+01  5.0000000000000000e+01  5.0000000000000000e+01  5.0000000000000000e+01  5.0000000000000000e+01  5.0000000000000000e+01  5.0000000000000000e+01  5.0000000000000000e+01  5.0000000000000000e+01  5.0000000000000000e+01  5.0000000000000000e+01  5.0000000000000000e+01  5.0000000000000000e+01  5.0000000000000000e+01  5.0000000000000000e+01  5.0000000000000000e+01  5.0000000000000000e+01  5.0000000000000000e+01  0.0000000000000000e+00  0.0000000000000000e+00  2.4823874882773048e+01  3.4902413296635004e+01  3.9236090575268811e+01  4.1508304986420605e+01  4.2856493514661210e+01  4.3721435676895226e+01  4.4305506858692070e+01  4.4713829147122041e+01  4.5006214573151517e+01  4.5219118121986220e+01  4.5375966515890909e+01  4.5492447154421868e+01  4.5579408277133240e+01  4.5644542073582556e+01  4.5693409486826212e+01  4.5730090436894621e+01  4.5757611361322638e+01  4.5778235158192921e+01  4.5793663112148714e+01  4.5805178729235188e+01  4.5813752131359990e+01  4.5820116985059620e+01  4.5824827870888598e+01  4.5828303453080615e+01  4.5830859173484257e+01  4.5832732116539361e+01  4.5834099964814250e+01  4.5835095461626075e+01  4.5835817441185625e+01  4.5836339229141238e+01  4.5836715026468980e+01  4.5836984747311540e+01  4.5837177673272215e+01  4.5837315203785550e+01  4.5837412918191781e+01  4.5837482115543075e+01  4.5837530959653108e+01  4.5837565327003432e+01  4.5837589431944657e+01  4.5837606285716248e+01  4.5837618032012216e+01  4.5837626191235586e+01  4.5837631837504965e+01  4.5837635726329324e+01  4.5837638386221904e+01  4.5837640184016983e+01  4.5837641371019124e+01  4.5837642115137072e+01  4.5837642522661561e+01  4.5837642652212310e+01  4.5837642522493383e+01  4.5837642114778888e+01  4.5837641370424741e+01  4.5837640183110857e+01  4.5837638384890383e+01  4.5837635724408266e+01  4.5837631834762384e+01  4.5837626187347141e+01  4.5837618026528723e+01  4.5837606278019706e+01  4.5837589421189570e+01  4.5837565312040361e+01  4.5837530938927891e+01  4.5837482086966965e+01  4.5837412878974654e+01  4.5837315150224235e+01  4.5837177600484260e+01  4.5836984648904128e+01  4.5836714894133117e+01  4.5836339052160234e+01  4.5835817205848599e+01  4.5835095150540958e+01  4.5834099556118481e+01  4.5832731583012908e+01  4.5830858481580840e+01  4.5828302561904557e+01  4.5824826731162148e+01  4.5820115538143249e+01  4.5813750308410548e+01  4.5805176450608158e+01  4.5793660287171569e+01  4.5778231685450223e+01  4.5757607129600942e+01  4.5730085326925860e+01  4.5693403373940470e+01  4.5644534831327732e+01  4.5579399781838802e+01  4.5492437290571864e+01  4.5375955182030403e+01  4.5219105236719962e+01  4.5006200080604465e+01  4.4713813021021160e+01  4.4305489103964014e+01  4.3721416327247525e+01  4.2856472623623375e+01  4.1508282606278314e+01  3.9236066706728785e+01  3.4902387738008947e+01  2.4823846600472173e+01  0.0000000000000000e+00  0.0000000000000000e+00  1.4397216109704967e+01  2.4303750416696030e+01  3.0245669480823615e+01  3.3866002043477678e+01  3.6182689765083921e+01  3.7732722531167965e+01  3.8806339478553802e+01  3.9569342637911383e+01  4.0121873630127034e+01  4.0527441858837264e+01  4.0828003862185945e+01  4.1052220371074760e+01  4.1220205245932441e+01  4.1346380531107030e+01  4.1441262311923360e+01  4.1512617983224104e+01  4.1566240119492690e+01  4.1606478502435813e+01  4.1636614807910796e+01  4.1659131971176663e+01  4.1675911187346934e+01  4.1688378004265900e+01  4.1697611846826746e+01  4.1704428796148868e+01  4.1709444512921465e+01  4.1713122241766364e+01  4.1715809503022349e+01  4.1717766150277491e+01  4.1719185809830712e+01  4.1720212235881540e+01  4.1720951757243569e+01  4.1721482721509979e+01  4.1721862636625822e+01  4.1722133551174508e+01  4.1722326091733436e+01  4.1722462480035936e+01  4.1722558778218939e+01  4.1722626552493836e+01  4.1722674100570508e+01  4.1722707353313183e+01  4.1722730534223423e+01  4.1722746639692737e+01  4.1722757787179653e+01  4.1722765466452095e+01  4.1722770719933635e+01  4.1722774271326571e+01  4.1722776616518942e+01  4.1722778086900803e+01  4.1722778892285852e+01  4.1722779148404804e+01  4.1722778892196480e+01  4.1722778086709525e+01  4.1722776616199219e+01  4.1722774270834663e+01  4.1722770719203126e+01  4.1722765465385933e+01  4.1722757785639033e+01  4.1722746637481301e+01  4.1722730531065409e+01  4.1722707348824159e+01  4.1722674094217481e+01  4.1722626543542482e+01  4.1722558765662647e+01  4.1722462462503607e+01  4.1722326067368655e+01  4.1722133517479925e+01  4.1721862590264301e+01  4.1721482658053247e+01  4.1720951670858945e+01  4.1720212118946058e+01  4.1719185652462599e+01  4.1717765939777387e+01  4.1715809223219217e+01  4.1713121872267727e+01  4.1709444028276295e+01  4.1704428164941895e+01  4.1697611030737427e+01  4.1688376957141443e+01  4.1675909854360185e+01  4.1659130288159602e+01  4.1636612700976244e+01  4.1606475888015055e+01  4.1566236904925091e+01  4.1512614068029521e+01  4.1441257589860591e+01  4.1346374893068315e+01  4.1220198583638989e+01  4.1052212581416036e+01  4.0827994851884235e+01  4.0527431548922777e+01  4.0121861959474543e+01  3.9569329564817416e+01  3.8806324978989473e+01  3.7732706591839495e+01  3.6182672368536146e+01  3.3865983140730108e+01  3.0245648944666517e+01  2.4303727979041629e+01  1.4397191459024512e+01  0.0000000000000000e+00  0.0000000000000000e+00  9.7235840668189564e+00  1.7685928960394293e+01  2.3463803438473501e+01  2.7482516945837187e+01  3.0276634828368671e+01  3.2246942601759102e+01  3.3659484059562367e+01  3.4687210895653983e+01  3.5443911978788577e+01  3.6006134749409775e+01  3.6426619535969685e+01  3.6742519694914293e+01  3.6980517334041295e+01  3.7160083796964749e+01  3.7295612179620271e+01  3.7397848409136877e+01  3.7474875312332152e+01  3.7532804631724588e+01  3.7576273490316645e+01  3.7608806785512733e+01  3.7633085588555296e+01  3.7651148278845987e+01  3.7664542650334297e+01  3.7674441712551953e+01  3.7681732252183089e+01  3.7687082743596690e+01  3.7690995480943933e+01  3.7693846589683126e+01  3.7695916696937530e+01  3.7697414392199178e+01  3.7698494123704826e+01  3.7699269805680906e+01  3.7699825126708674e+01  3.7700221328321938e+01  3.7700503050457009e+01  3.7700702705475493e+01  3.7700843736940428e+01  3.7700943036853083e+01  3.7701012730776952e+01  3.7701061490347243e+01  3.7701095494047287e+01  3.7701119127404866e+01  3.7701135490985259e+01  3.7701146767196619e+01  3.7701154483750400e+01  3.7701159701667279e+01  3.7701163148223308e+01  3.7701165309588077e+01  3.7701166493649069e+01  3.7701166870266192e+01  3.7701166493666051e+01  3.7701165309621949e+01  3.7701163148273487e+01  3.7701159701731910e+01  3.7701154483825150e+01  3.7701146767272483e+01  3.7701135491045044e+01  3.7701119127418146e+01  3.7701095493962484e+01  3.7701061490079987e+01  3.7701012730193206e+01  3.7700943035744558e+01  3.7700843734989988e+01  3.7700702702208240e+01  3.7700503045172837e+01  3.7700221320003081e+01  3.7699825113895244e+01  3.7699269786305180e+01  3.7698494094874007e+01  3.7697414349914986e+01  3.7695916635739458e+01  3.7693846502203478e+01  3.7690995357362674e+01  3.7687082570987954e+01  3.7681732013750754e+01  3.7674441386760485e+01  3.7664542209954043e+01  3.7651147689949013e+01  3.7633084809518593e+01  3.7608805766109967e+01  3.7576272171005499e+01  3.7532802943259448e+01  3.7474873175848501e+01  3.7397845736857860e+01  3.7295608876316095e+01  3.7160079762248024e+01  3.6980512465494805e+01  3.6742513891915110e+01  3.6426612703893170e+01  3.6006126803669140e+01  3.5443902847897277e+01  3.4687200522196314e+01  3.3659472397635248e+01  3.2246929609115845e+01  3.0276620451232670e+01  2.7482501094612790e+01  2.3463785955436688e+01  1.7685909592053459e+01  9.7235624540752408e+00  0.0000000000000000e+00  0.0000000000000000e+00  7.1232781471090467e+00  1.3413270527133561e+01  1.8476094014641937e+01  2.2341968936600374e+01  2.5227908726672837e+01  2.7370089778035478e+01  2.8963356248476714e+01  3.0153898446051954e+01  3.1047930702804489e+01  3.1722151972697343e+01  3.2232221126994759e+01  3.2618898090951276e+01  3.2912331799081961e+01  3.3135031032057739e+01  3.3303934111165589e+01  3.3431867812158110e+01  3.3528590584905338e+01  3.3601549701298332e+01  3.3656438622266201e+01  3.3697612548814476e+01  3.3728401613705351e+01  3.3751349002085497e+01  3.3768393205900942e+01  3.3781008174520196e+01  3.3790311401135348e+01  3.3797147392147153e+01  3.3802152126664133e+01  3.3805802781202843e+01  3.3808456011721084e+01  3.3810377346803222e+01  3.3811763682677501e+01  3.3812760435822774e+01  3.3813474569876767e+01  3.3813984447573382e+01  3.3814347249031066e+01  3.3814604532651671e+01  3.3814786384874587e+01  3.3814914502849838e+01  3.3815004474057012e+01  3.3815067454469535e+01  3.3815111398401818e+01  3.3815141955748757e+01  3.3815163123574870e+01  3.3815177717035745e+01  3.3815187707907718e+01  3.3815194466353425e+01  3.3815198932005309e+01  3.3815201733254860e+01  3.3815203268195518e+01  3.3815203756509504e+01  3.3815203268342493e+01  3.3815201733563654e+01  3.3815198932506533e+01  3.3815194467095850e+01  3.3815187708961396e+01  3.3815177718496969e+01  3.3815163125571758e+01  3.3815141958448322e+01  3.3815111402018161e+01  3.3815067459272790e+01  3.3815004480382115e+01  3.3814914511104696e+01  3.3814786395545013e+01  3.3814604546301368e+01  3.3814347266291904e+01  3.3813984469121245e+01  3.3813474596385610e+01  3.3812760467887401e+01  3.3811763720692994e+01  3.3810377390786549e+01  3.3808456061057505e+01  3.3805802834298298e+01  3.3802152180482430e+01  3.3797147441613717e+01  3.3790311438390582e+01  3.3781008188014582e+01  3.3768393179335021e+01  3.3751348913217058e+01  3.3728401433069514e+01  3.3697612238432868e+01  3.3656438134455662e+01  3.3601548977725066e+01  3.3528589556060794e+01  3.3431866397451003e+01  3.3303932219819956e+01  3.3135028564967882e+01  3.2912328651691361e+01  3.2618894157082117e+01  3.2232216303354882e+01  3.1722146163535630e+01  3.1047923823886308e+01  3.0153890426813160e+01  2.8963347030935111e+01  2.7370079310876687e+01  2.5227896953051538e+01  2.2341955774968401e+01  1.8476079333791834e+01  1.3413254118138745e+01  7.1232596867764242e+00  0.0000000000000000e+00  0.0000000000000000e+00  5.4621278472530648e+00  1.0474325961025139e+01  1.4757614720791951e+01  1.8240014231531710e+01  2.0986794708192658e+01  2.3118301035993621e+01  2.4759503552487537e+01  2.6019124908542739e+01  2.6984860182038965e+01  2.7725080194480867e+01  2.8292336728870058e+01  2.8726840126868318e+01  2.9059359688894755e+01  2.9313486476818625e+01  2.9507351410917366e+01  2.9654918210653619e+01  2.9766956539241651e+01  2.9851777806291398e+01  2.9915795071437511e+01  2.9963951935699175e+01  3.0000053052544470e+01  3.0027020068394584e+01  3.0047090516630384e+01  3.0061972710986463e+01  3.0072966472214642e+01  3.0081057191693787e+01  3.0086989020735995e+01  3.0091321692133153e+01  3.0094474506574990e+01  3.0096760266018702e+01  3.0098411350526032e+01  3.0099599673867921e+01  3.0100451887514371e+01  3.0101060911580444e+01  3.0101494639334156e+01  3.0101802477123130e+01  3.0102020234772130e+01  3.0102173765261785e+01  3.0102281660869629e+01  3.0102357241094040e+01  3.0102410011631900e+01  3.0102446730218862e+01  3.0102472181629505e+01  3.0102489738444785e+01  3.0102501764605865e+01  3.0102509903905748e+01  3.0102515284324920e+01  3.0102518660622238e+01  3.0102520511156822e+01  3.0102521099988930e+01  3.0102520511452550e+01  3.0102518661245387e+01  3.0102515285341418e+01  3.0102509905421389e+01  3.0102501766774786e+01  3.0102489741481723e+01  3.0102472185825572e+01  3.0102446735962221e+01  3.0102410019433357e+01  3.0102357251618244e+01  3.0102281674971991e+01  3.0102173784031354e+01  3.0102020259579351e+01  3.0101802509670836e+01  3.0101494681708871e+01  3.0101060966298800e+01  3.0100451957557176e+01  3.0099599762691646e+01  3.0098411462036719e+01  3.0096760404490336e+01  3.0094474676489035e+01  3.0091321897911662e+01  3.0086989266337813e+01  3.0081057480041398e+01  3.0072966804420766e+01  3.0061973085355749e+01  3.0047090927424183e+01  3.0027020504366995e+01  3.0000053495286792e+01  2.9963952357869037e+01  2.9915795434994489e+01  2.9851778060911755e+01  2.9766956621133577e+01  2.9654918042030722e+01  2.9507350900402002e+01  2.9313485521020191e+01  2.9059358175329017e+01  2.8726837938237939e+01  2.8292333748508081e+01  2.7725076312474410e+01  2.6984855301219643e+01  2.6019118949198063e+01  2.4759496454381349e+01  2.3118292756184925e+01  2.0986785213344135e+01  1.8240003484021880e+01  1.4757602658846160e+01  1.0474312473359717e+01  5.4621127413088013e+00  0.0000000000000000e+00  0.0000000000000000e+00  4.3020896446642087e+00  8.3375438388604852e+00  1.1915655394538195e+01  1.4951093454082363e+01  1.7445985295381234e+01  1.9453611081107418e+01  2.1047239321433100e+01  2.2301253663177423e+01  2.3282376318847007e+01  2.4046875590945554e+01  2.4640668528078152e+01  2.5100559220164691e+01  2.5455757689327463e+01  2.5729318622401543e+01  2.5939377877624512e+01  2.6100168678260559e+01  2.6222838896574181e+01  2.6316101765680809e+01  2.6386751804799434e+01  2.6440073340409544e+01  2.6480163930298218e+01  2.6510190419386419e+01  2.6532591588730980e+01  2.6549238381441242e+01  2.6561560374062431e+01  2.6570645367696706e+01  2.6577317576670669e+01  2.6582198796918629e+01  2.6585756068564294e+01  2.6588338653941737e+01  2.6590206594461574e+01  2.6591552658654109e+01  2.6592519128062282e+01  2.6593210571165557e+01  2.6593703515500895e+01  2.6594053734478869e+01  2.6594301709803911e+01  2.6594476706070651e+01  2.6594599795324985e+01  2.6594686091387313e+01  2.6594746392555003e+01  2.6594788383618770e+01  2.6594817511206450e+01  2.6594837618050288e+01  2.6594851400033281e+01  2.6594860733317166e+01  2.6594866906300467e+01  2.6594870781645451e+01  2.6594872906390471e+01  2.6594873582623897e+01  2.6594872906848181e+01  2.6594870782610670e+01  2.6594866907877179e+01  2.6594860735672530e+01  2.6594851403411742e+01  2.6594837622793499e+01  2.6594817517779951e+01  2.6594788392646880e+01  2.6594746404864484e+01  2.6594686108061865e+01  2.6594599817771311e+01  2.6594476736097267e+01  2.6594301749712471e+01  2.6594053787167503e+01  2.6593703584576854e+01  2.6593210661062272e+01  2.6592519244152818e+01  2.6591552807348702e+01  2.6590206783272144e+01  2.6588338891490249e+01  2.6585756364504974e+01  2.6582199161737861e+01  2.6577318021322466e+01  2.6570645903027781e+01  2.6561561009980284e+01  2.6549239125784890e+01  2.6532592445816594e+01  2.6510191388223767e+01  2.6480165002509640e+01  2.6440074497930503e+01  2.6386753017500236e+01  2.6316102989116036e+01  2.6222840070135181e+01  2.6100169724063463e+01  2.5939378700499258e+01  2.5729319111335915e+01  2.5455757720646130e+01  2.5100558662573405e+01  2.4640667249466130e+01  2.4046873466525273e+01  2.3282373239843789e+01  2.2301249544914125e+01  2.1047234109365558e+01  1.9453604753250403e+01  1.7445977859726199e+01  1.4951084940091095e+01  1.1915645838521105e+01  8.3375332638486164e+00  4.3020780364363160e+00  0.0000000000000000e+00  0.0000000000000000e+00  3.4429275464952944e+00  6.7169382223765037e+00  9.6904892984553292e+00  1.2288670760241816e+01  1.4490717120524357e+01  1.6314747681677602e+01  1.7800494577505976e+01  1.8995942233047447e+01  1.9949073174711938e+01  2.0703662918258825e+01  2.1297647732409530e+01  2.1762903340821403e+01  2.2125696368874465e+01  2.2407394382784489e+01  2.2625223567588471e+01  2.2792977511526331e+01  2.2921640331366685e+01  2.3019916495094844e+01  2.3094672667634775e+01  2.3151301790981673e+01  2.3194020675750856e+01  2.3226111786820500e+01  2.3250118699981257e+01  2.3268003370792137e+01  2.3281272093452017e+01  2.3291075907077513e+01  2.3298290241785349e+01  2.3303577776852162e+01  2.3307437790394427e+01  2.3310244696504199e+01  2.3312277975544092e+01  2.3313745292646971e+01  2.3314800256822636e+01  2.3315555988589111e+01  2.3316095429241500e+01  2.3316479132345258e+01  2.3316751121300641e+01  2.3316943270169428e+01  2.3317078563382893e+01  2.3317173509116650e+01  2.3317239917274641e+01  2.3317286202972618e+01  2.3317318337454211e+01  2.3317340538253255e+01  2.3317355767279999e+01  2.3317366087828233e+01  2.3317372918047464e+01  2.3317377208202810e+01  2.3317379561259354e+01  2.3317380310338834e+01  2.3317379561886316e+01  2.3317377209525315e+01  2.3317372920208797e+01  2.3317366091058904e+01  2.3317355771917470e+01  2.3317340544769845e+01  2.3317318346494655e+01  2.3317286215403197e+01  2.3317239934245229e+01  2.3317173532138476e+01  2.3317078594423659e+01  2.3316943311767663e+01  2.3316751176700397e+01  2.3316479205650666e+01  2.3316095525589454e+01  2.3315556114334647e+01  2.3314800419728694e+01  2.3313745502063771e+01  2.3312278242558374e+01  2.3310245034029982e+01  2.3307438213168506e+01  2.3303578301289338e+01  2.3298290885639563e+01  2.3291076688849728e+01  2.3281273031483511e+01  2.3268004481987209e+01  2.3250119998117949e+01  2.3226113280434941e+01  2.3194022365622697e+01  2.3151303667306667e+01  2.3094674707043605e+01  2.3019918657761927e+01  2.2921642558540771e+01  2.2792979723892898e+01  2.2625225664924457e+01  2.2407396245369124e+01  2.2125697861052245e+01  2.1762904316957918e+01  2.1297648045227156e+01  2.0703662429195244e+01  1.9949071765539038e+01  1.8995939817576446e+01  1.7800491111868325e+01  1.6314743171505860e+01  1.4490711623456534e+01  1.2288664382588978e+01  9.6904821856072534e+00  6.7169305435702569e+00  3.4429194760522308e+00  0.0000000000000000e+00  0.0000000000000000e+00  2.7810308988094974e+00  5.4497126660223278e+00  7.9136307884316253e+00  1.0112433300349894e+01  1.2019493660422990e+01  1.3635827653318385e+01  1.4980976133385536e+01  1.6084460735179178e+01  1.6979416759942708e+01  1.7698553742513720e+01  1.8271952592251544e+01  1.8726096341676328e+01  1.9083641140716821e+01  1.9363587762836712e+01  1.9581642335037778e+01  1.9750644304003867e+01  1.9880995928876253e+01  1.9981060891334810e+01  2.0057518394143106e+01  2.0115669241068542e+01  2.0159695548949443e