<?xml version="1.0"?>
<VTKFile type="UnstructuredGrid"  version="0.1"  >
<UnstructuredGrid>
<Piece  NumberOfPoints="10201" NumberOfCells="20000">
<Points>
<DataArray  type="Float64"  NumberOfComponents="3"  format="ascii">0 0 0  0.01 0 0  0.02 0 0  0.03 0 0  0.04 0 0  0.05 0 0  0.06 0 0  0.07000000000000001 0 0  0.08 0 0  0.09 0 0  0.1 0 0  0.11 0 0  0.12 0 0  0.13 0 0  0.14 0 0  0.15 0 0  0.16 0 0  0.17 0 0  0.18 0 0  0.19 0 0  0.2 0 0  0.21 0 0  0.22 0 0  0.23 0 0  0.24 0 0  0.25 0 0  0.26 0 0  0.27 0 0  0.28 0 0  0.29 0 0  0.3 0 0  0.31 0 0  0.32 0 0  0.33 0 0  0.34 0 0  0.35 0 0  0.36 0 0  0.37 0 0  0.38 0 0  0.39 0 0  0.4 0 0  0.41 0 0  0.42 0 0  0.43 0 0  0.44 0 0  0.45 0 0  0.46 0 0  0.47 0 0  0.48 0 0  0.49 0 0  0.5 0 0  0.51 0 0  0.52 0 0  0.53 0 0  0.54 0 0  0.55 0 0  0.5600000000000001 0 0  0.57 0 0  0.58 0 0  0.59 0 0  0.6 0 0  0.61 0 0  0.62 0 0  0.63 0 0  0.64 0 0  0.65 0 0  0.66 0 0  0.67 0 0  0.68 0 0  0.6899999999999999 0 0  0.7 0 0  0.71 0 0  0.72 0 0  0.73 0 0  0.74 0 0  0.75 0 0  0.76 0 0  0.77 0 0  0.78 0 0  0.79 0 0  0.8 0 0  0.8100000000000001 0 0  0.82 0 0  0.83 0 0  0.84 0 0  0.85 0 0  0.86 0 0  0.87 0 0  0.88 0 0  0.89 0 0  0.9 0 0  0.91 0 0  0.92 0 0  0.93 0 0  0.9399999999999999 0 0  0.95 0 0  0.96 0 0  0.97 0 0  0.98 0 0  0.99 0 0  1 0 0  0 0.01 0  0.01 0.01 0  0.02 0.01 0  0.03 0.01 0  0.04 0.01 0  0.05 0.01 0  0.06 0.01 0  0.07000000000000001 0.01 0  0.08 0.01 0  0.09 0.01 0  0.1 0.01 0  0.11 0.01 0  0.12 0.01 0  0.13 0.01 0  0.14 0.01 0  0.15 0.01 0  0.16 0.01 0  0.17 0.01 0  0.18 0.01 0  0.19 0.01 0  0.2 0.01 0  0.21 0.01 0  0.22 0.01 0  0.23 0.01 0  0.24 0.01 0  0.25 0.01 0  0.26 0.01 0  0.27 0.01 0  0.28 0.01 0  0.29 0.01 0  0.3 0.01 0  0.31 0.01 0  0.32 0.01 0  0.33 0.01 0  0.34 0.01 0  0.35 0.01 0  0.36 0.01 0  0.37 0.01 0  0.38 0.01 0  0.39 0.01 0  0.4 0.01 0  0.41 0.01 0  0.42 0.01 0  0.43 0.01 0  0.44 0.01 0  0.45 0.01 0  0.46 0.01 0  0.47 0.01 0  0.48 0.01 0  0.49 0.01 0  0.5 0.01 0  0.51 0.01 0  0.52 0.01 0  0.53 0.01 0  0.54 0.01 0  0.55 0.01 0  0.5600000000000001 0.01 0  0.57 0.01 0  0.58 0.01 0  0.59 0.01 0  0.6 0.01 0  0.61 0.01 0  0.62 0.01 0  0.63 0.01 0  0.64 0.01 0  0.65 0.01 0  0.66 0.01 0  0.67 0.01 0  0.68 0.01 0  0.6899999999999999 0.01 0  0.7 0.01 0  0.71 0.01 0  0.72 0.01 0  0.73 0.01 0  0.74 0.01 0  0.75 0.01 0  0.76 0.01 0  0.77 0.01 0  0.78 0.01 0  0.79 0.01 0  0.8 0.01 0  0.8100000000000001 0.01 0  0.82 0.01 0  0.83 0.01 0  0.84 0.01 0  0.85 0.01 0  0.86 0.01 0  0.87 0.01 0  0.88 0.01 0  0.89 0.01 0  0.9 0.01 0  0.91 0.01 0  0.92 0.01 0  0.93 0.01 0  0.9399999999999999 0.01 0  0.95 0.01 0  0.96 0.01 0  0.97 0.01 0  0.98 0.01 0  0.99 0.01 0  1 0.01 0  0 0.02 0  0.01 0.02 0  0.02 0.02 0  0.03 0.02 0  0.04 0.02 0  0.05 0.02 0  0.06 0.02 0  0.07000000000000001 0.02 0  0.08 0.02 0  0.09 0.02 0  0.1 0.02 0  0.11 0.02 0  0.12 0.02 0  0.13 0.02 0  0.14 0.02 0  0.15 0.02 0  0.16 0.02 0  0.17 0.02 0  0.18 0.02 0  0.19 0.02 0  0.2 0.02 0  0.21 0.02 0  0.22 0.02 0  0.23 0.02 0  0.24 0.02 0  0.25 0.02 0  0.26 0.02 0  0.27 0.02 0  0.28 0.02 0  0.29 0.02 0  0.3 0.02 0  0.31 0.02 0  0.32 0.02 0  0.33 0.02 0  0.34 0.02 0  0.35 0.02 0  0.36 0.02 0  0.37 0.02 0  0.38 0.02 0  0.39 0.02 0  0.4 0.02 0  0.41 0.02 0  0.42 0.02 0  0.43 0.02 0  0.44 0.02 0  0.45 0.02 0  0.46 0.02 0  0.47 0.02 0  0.48 0.02 0  0.49 0.02 0  0.5 0.02 0  0.51 0.02 0  0.52 0.02 0  0.53 0.02 0  0.54 0.02 0  0.55 0.02 0  0.5600000000000001 0.02 0  0.57 0.02 0  0.58 0.02 0  0.59 0.02 0  0.6 0.02 0  0.61 0.02 0  0.62 0.02 0  0.63 0.02 0  0.64 0.02 0  0.65 0.02 0  0.66 0.02 0  0.67 0.02 0  0.68 0.02 0  0.6899999999999999 0.02 0  0.7 0.02 0  0.71 0.02 0  0.72 0.02 0  0.73 0.02 0  0.74 0.02 0  0.75 0.02 0  0.76 0.02 0  0.77 0.02 0  0.78 0.02 0  0.79 0.02 0  0.8 0.02 0  0.8100000000000001 0.02 0  0.82 0.02 0  0.83 0.02 0  0.84 0.02 0  0.85 0.02 0  0.86 0.02 0  0.87 0.02 0  0.88 0.02 0  0.89 0.02 0  0.9 0.02 0  0.91 0.02 0  0.92 0.02 0  0.93 0.02 0  0.9399999999999999 0.02 0  0.95 0.02 0  0.96 0.02 0  0.97 0.02 0  0.98 0.02 0  0.99 0.02 0  1 0.02 0  0 0.03 0  0.01 0.03 0  0.02 0.03 0  0.03 0.03 0  0.04 0.03 0  0.05 0.03 0  0.06 0.03 0  0.07000000000000001 0.03 0  0.08 0.03 0  0.09 0.03 0  0.1 0.03 0  0.11 0.03 0  0.12 0.03 0  0.13 0.03 0  0.14 0.03 0  0.15 0.03 0  0.16 0.03 0  0.17 0.03 0  0.18 0.03 0  0.19 0.03 0  0.2 0.03 0  0.21 0.03 0  0.22 0.03 0  0.23 0.03 0  0.24 0.03 0  0.25 0.03 0  0.26 0.03 0  0.27 0.03 0  0.28 0.03 0  0.29 0.03 0  0.3 0.03 0  0.31 0.03 0  0.32 0.03 0  0.33 0.03 0  0.34 0.03 0  0.35 0.03 0  0.36 0.03 0  0.37 0.03 0  0.38 0.03 0  0.39 0.03 0  0.4 0.03 0  0.41 0.03 0  0.42 0.03 0  0.43 0.03 0  0.44 0.03 0  0.45 0.03 0  0.46 0.03 0  0.47 0.03 0  0.48 0.03 0  0.49 0.03 0  0.5 0.03 0  0.51 0.03 0  0.52 0.03 0  0.53 0.03 0  0.54 0.03 0  0.55 0.03 0  0.5600000000000001 0.03 0  0.57 0.03 0  0.58 0.03 0  0.59 0.03 0  0.6 0.03 0  0.61 0.03 0  0.62 0.03 0  0.63 0.03 0  0.64 0.03 0  0.65 0.03 0  0.66 0.03 0  0.67 0.03 0  0.68 0.03 0  0.6899999999999999 0.03 0  0.7 0.03 0  0.71 0.03 0  0.72 0.03 0  0.73 0.03 0  0.74 0.03 0  0.75 0.03 0  0.76 0.03 0  0.77 0.03 0  0.78 0.03 0  0.79 0.03 0  0.8 0.03 0  0.8100000000000001 0.03 0  0.82 0.03 0  0.83 0.03 0  0.84 0.03 0  0.85 0.03 0  0.86 0.03 0  0.87 0.03 0  0.88 0.03 0  0.89 0.03 0  0.9 0.03 0  0.91 0.03 0  0.92 0.03 0  0.93 0.03 0  0.9399999999999999 0.03 0  0.95 0.03 0  0.96 0.03 0  0.97 0.03 0  0.98 0.03 0  0.99 0.03 0  1 0.03 0  0 0.04 0  0.01 0.04 0  0.02 0.04 0  0.03 0.04 0  0.04 0.04 0  0.05 0.04 0  0.06 0.04 0  0.07000000000000001 0.04 0  0.08 0.04 0  0.09 0.04 0  0.1 0.04 0  0.11 0.04 0  0.12 0.04 0  0.13 0.04 0  0.14 0.04 0  0.15 0.04 0  0.16 0.04 0  0.17 0.04 0  0.18 0.04 0  0.19 0.04 0  0.2 0.04 0  0.21 0.04 0  0.22 0.04 0  0.23 0.04 0  0.24 0.04 0  0.25 0.04 0  0.26 0.04 0  0.27 0.04 0  0.28 0.04 0  0.29 0.04 0  0.3 0.04 0  0.31 0.04 0  0.32 0.04 0  0.33 0.04 0  0.34 0.04 0  0.35 0.04 0  0.36 0.04 0  0.37 0.04 0  0.38 0.04 0  0.39 0.04 0  0.4 0.04 0  0.41 0.04 0  0.42 0.04 0  0.43 0.04 0  0.44 0.04 0  0.45 0.04 0  0.46 0.04 0  0.47 0.04 0  0.48 0.04 0  0.49 0.04 0  0.5 0.04 0  0.51 0.04 0  0.52 0.04 0  0.53 0.04 0  0.54 0.04 0  0.55 0.04 0  0.5600000000000001 0.04 0  0.57 0.04 0  0.58 0.04 0  0.59 0.04 0  0.6 0.04 0  0.61 0.04 0  0.62 0.04 0  0.63 0.04 0  0.64 0.04 0  0.65 0.04 0  0.66 0.04 0  0.67 0.04 0  0.68 0.04 0  0.6899999999999999 0.04 0  0.7 0.04 0  0.71 0.04 0  0.72 0.04 0  0.73 0.04 0  0.74 0.04 0  0.75 0.04 0  0.76 0.04 0  0.77 0.04 0  0.78 0.04 0  0.79 0.04 0  0.8 0.04 0  0.8100000000000001 0.04 0  0.82 0.04 0  0.83 0.04 0  0.84 0.04 0  0.85 0.04 0  0.86 0.04 0  0.87 0.04 0  0.88 0.04 0  0.89 0.04 0  0.9 0.04 0  0.91 0.04 0  0.92 0.04 0  0.93 0.04 0  0.9399999999999999 0.04 0  0.95 0.04 0  0.96 0.04 0  0.97 0.04 0  0.98 0.04 0  0.99 0.04 0  1 0.04 0  0 0.05 0  0.01 0.05 0  0.02 0.05 0  0.03 0.05 0  0.04 0.05 0  0.05 0.05 0  0.06 0.05 0  0.07000000000000001 0.05 0  0.08 0.05 0  0.09 0.05 0  0.1 0.05 0  0.11 0.05 0  0.12 0.05 0  0.13 0.05 0  0.14 0.05 0  0.15 0.05 0  0.16 0.05 0  0.17 0.05 0  0.18 0.05 0  0.19 0.05 0  0.2 0.05 0  0.21 0.05 0  0.22 0.05 0  0.23 0.05 0  0.24 0.05 0  0.25 0.05 0  0.26 0.05 0  0.27 0.05 0  0.28 0.05 0  0.29 0.05 0  0.3 0.05 0  0.31 0.05 0  0.32 0.05 0  0.33 0.05 0  0.34 0.05 0  0.35 0.05 0  0.36 0.05 0  0.37 0.05 0  0.38 0.05 0  0.39 0.05 0  0.4 0.05 0  0.41 0.05 0  0.42 0.05 0  0.43 0.05 0  0.44 0.05 0  0.45 0.05 0  0.46 0.05 0  0.47 0.05 0  0.48 0.05 0  0.49 0.05 0  0.5 0.05 0  0.51 0.05 0  0.52 0.05 0  0.53 0.05 0  0.54 0.05 0  0.55 0.05 0  0.5600000000000001 0.05 0  0.57 0.05 0  0.58 0.05 0  0.59 0.05 0  0.6 0.05 0  0.61 0.05 0  0.62 0.05 0  0.63 0.05 0  0.64 0.05 0  0.65 0.05 0  0.66 0.05 0  0.67 0.05 0  0.68 0.05 0  0.6899999999999999 0.05 0  0.7 0.05 0  0.71 0.05 0  0.72 0.05 0  0.73 0.05 0  0.74 0.05 0  0.75 0.05 0  0.76 0.05 0  0.77 0.05 0  0.78 0.05 0  0.79 0.05 0  0.8 0.05 0  0.8100000000000001 0.05 0  0.82 0.05 0  0.83 0.05 0  0.84 0.05 0  0.85 0.05 0  0.86 0.05 0  0.87 0.05 0  0.88 0.05 0  0.89 0.05 0  0.9 0.05 0  0.91 0.05 0  0.92 0.05 0  0.93 0.05 0  0.9399999999999999 0.05 0  0.95 0.05 0  0.96 0.05 0  0.97 0.05 0  0.98 0.05 0  0.99 0.05 0  1 0.05 0  0 0.06 0  0.01 0.06 0  0.02 0.06 0  0.03 0.06 0  0.04 0.06 0  0.05 0.06 0  0.06 0.06 0  0.07000000000000001 0.06 0  0.08 0.06 0  0.09 0.06 0  0.1 0.06 0  0.11 0.06 0  0.12 0.06 0  0.13 0.06 0  0.14 0.06 0  0.15 0.06 0  0.16 0.06 0  0.17 0.06 0  0.18 0.06 0  0.19 0.06 0  0.2 0.06 0  0.21 0.06 0  0.22 0.06 0  0.23 0.06 0  0.24 0.06 0  0.25 0.06 0  0.26 0.06 0  0.27 0.06 0  0.28 0.06 0  0.29 0.06 0  0.3 0.06 0  0.31 0.06 0  0.32 0.06 0  0.33 0.06 0  0.34 0.06 0  0.35 0.06 0  0.36 0.06 0  0.37 0.06 0  0.38 0.06 0  0.39 0.06 0  0.4 0.06 0  0.41 0.06 0  0.42 0.06 0  0.43 0.06 0  0.44 0.06 0  0.45 0.06 0  0.46 0.06 0  0.47 0.06 0  0.48 0.06 0  0.49 0.06 0  0.5 0.06 0  0.51 0.06 0  0.52 0.06 0  0.53 0.06 0  0.54 0.06 0  0.55 0.06 0  0.5600000000000001 0.06 0  0.57 0.06 0  0.58 0.06 0  0.59 0.06 0  0.6 0.06 0  0.61 0.06 0  0.62 0.06 0  0.63 0.06 0  0.64 0.06 0  0.65 0.06 0  0.66 0.06 0  0.67 0.06 0  0.68 0.06 0  0.6899999999999999 0.06 0  0.7 0.06 0  0.71 0.06 0  0.72 0.06 0  0.73 0.06 0  0.74 0.06 0  0.75 0.06 0  0.76 0.06 0  0.77 0.06 0  0.78 0.06 0  0.79 0.06 0  0.8 0.06 0  0.8100000000000001 0.06 0  0.82 0.06 0  0.83 0.06 0  0.84 0.06 0  0.85 0.06 0  0.86 0.06 0  0.87 0.06 0  0.88 0.06 0  0.89 0.06 0  0.9 0.06 0  0.91 0.06 0  0.92 0.06 0  0.93 0.06 0  0.9399999999999999 0.06 0  0.95 0.06 0  0.96 0.06 0  0.97 0.06 0  0.98 0.06 0  0.99 0.06 0  1 0.06 0  0 0.07000000000000001 0  0.01 0.07000000000000001 0  0.02 0.07000000000000001 0  0.03 0.07000000000000001 0  0.04 0.07000000000000001 0  0.05 0.07000000000000001 0  0.06 0.07000000000000001 0  0.07000000000000001 0.07000000000000001 0  0.08 0.07000000000000001 0  0.09 0.07000000000000001 0  0.1 0.07000000000000001 0  0.11 0.07000000000000001 0  0.12 0.07000000000000001 0  0.13 0.07000000000000001 0  0.14 0.07000000000000001 0  0.15 0.07000000000000001 0  0.16 0.07000000000000001 0  0.17 0.0700
[...]
<PointData  Scalars="f_17"> 
<DataArray  type="Float64"  Name="f_17"  format="ascii">0.0000000000000000e+00  5.0000000000000000e+01  5.0000000000000000e+01  5.0000000000000000e+01  5.0000000000000000e+01  5.0000000000000000e+01  5.0000000000000000e+01  5.0000000000000000e+01  5.0000000000000000e+01  5.0000000000000000e+01  5.0000000000000000e+01  5.0000000000000000e+01  5.0000000000000000e+01  5.0000000000000000e+01  5.0000000000000000e+01  5.0000000000000000e+01  5.0000000000000000e+01  5.0000000000000000e+01  5.0000000000000000e+01  5.0000000000000000e+01  5.0000000000000000e+01  5.0000000000000000e+01  5.0000000000000000e+01  5.0000000000000000e+01  5.0000000000000000e+01  5.0000000000000000e+01  5.0000000000000000e+01  5.0000000000000000e+01  5.0000000000000000e+01  5.0000000000000000e+01  5.0000000000000000e+01  5.0000000000000000e+01  5.0000000000000000e+01  5.0000000000000000e+01  5.0000000000000000e+01  5.0000000000000000e+01  5.0000000000000000e+01  5.0000000000000000e+01  5.0000000000000000e+01  5.0000000000000000e+01  5.0000000000000000e+01  5.0000000000000000e+01  5.0000000000000000e+01  5.0000000000000000e+01  5.0000000000000000e+01  5.0000000000000000e+01  5.0000000000000000e+01  5.0000000000000000e+01  5.0000000000000000e+01  5.0000000000000000e+01  5.0000000000000000e+01  5.0000000000000000e+01  5.0000000000000000e+01  5.0000000000000000e+01  5.0000000000000000e+01  5.0000000000000000e+01  5.0000000000000000e+01  5.0000000000000000e+01  5.0000000000000000e+01  5.0000000000000000e+01  5.0000000000000000e+01  5.0000000000000000e+01  5.0000000000000000e+01  5.0000000000000000e+01  5.0000000000000000e+01  5.0000000000000000e+01  5.0000000000000000e+01  5.0000000000000000e+01  5.0000000000000000e+01  5.0000000000000000e+01  5.0000000000000000e+01  5.0000000000000000e+01  5.0000000000000000e+01  5.0000000000000000e+01  5.0000000000000000e+01  5.0000000000000000e+01  5.0000000000000000e+01  5.0000000000000000e+01  5.0000000000000000e+01  5.0000000000000000e+01  5.0000000000000000e+01  5.0000000000000000e+01  5.0000000000000000e+01  5.0000000000000000e+01  5.0000000000000000e+01  5.0000000000000000e+01  5.0000000000000000e+01  5.0000000000000000e+01  5.0000000000000000e+01  5.0000000000000000e+01  5.0000000000000000e+01  5.0000000000000000e+01  5.0000000000000000e+01  5.0000000000000000e+01  5.0000000000000000e+01  5.0000000000000000e+01  5.0000000000000000e+01  5.0000000000000000e+01  5.0000000000000000e+01  5.0000000000000000e+01  0.0000000000000000e+00  0.0000000000000000e+00  2.4879753002119919e+01  3.5013611611628825e+01  3.9401494735013301e+01  4.1726289073128797e+01  4.3124971174122223e+01  4.4037923830078817e+01  4.4667198427630126e+01  4.5117671029719375e+01  4.5448987117513624e+01  4.5697512612302162e+01  4.5886657649600281e+01  4.6032158103310444e+01  4.6144966615556768e+01  4.6232925560341435e+01  4.6301781347760866e+01  4.6355824370947154e+01  4.6398306956632787e+01  4.6431724744521382e+01  4.6458011292062452e+01  4.6478675933458064e+01  4.6494903550555271e+01  4.6507628161675285e+01  4.6517588112037416e+01  4.6525368069032922e+01  4.6531431373919951e+01  4.6536145222596609e+01  4.6539800429936456e+01  4.6542627045546126e+01  4.6544806753347480e+01  4.6546482752181504e+01  4.6547767646893192e+01  4.6548749757679005e+01  4.6549498165689997e+01  4.6550066745515814e+01  4.6550497383798735e+01  4.6550822543466218e+01  4.6551067301872578e+01  4.6551250966386959e+01  4.6551388351130186e+01  4.6551490782554986e+01  4.6551566888575955e+01  4.6551623215374377e+01  4.6551664707366129e+01  4.6551695078763920e+01  4.6551717099388441e+01  4.6551732812657157e+01  4.6551743699799964e+01  4.6551750801157134e+01  4.6551754802760676e+01  4.6551756094169974e+01  4.6551754801610997e+01  4.6551750798764658e+01  4.6551743695972434e+01  4.6551732807091199e+01  4.6551717091650815e+01  4.6551695068265275e+01  4.6551664693326728e+01  4.6551623196780568e+01  4.6551566864125604e+01  4.6551490750590865e+01  4.6551388309559833e+01  4.6551250912587072e+01  4.6551067232576621e+01  4.6550822454634236e+01  4.6550497270468092e+01  4.6550066601632928e+01  4.6549497983923629e+01  4.6548749529216636e+01  4.6547767361224345e+01  4.6546482396872122e+01  4.6544806313813105e+01  4.6542626504832860e+01  4.6539799768522101e+01  4.6536144418225788e+01  4.6531430401490347e+01  4.6525366900551340e+01  4.6517586716666138e+01  4.6507626505888766e+01  4.6494901598427049e+01  4.6478673647094297e+01  4.6458008632195479e+01  4.6431721671266928e+01  4.6398303430408475e+01  4.6355820353536558e+01  4.6301776803494647e+01  4.6232920457351632e+01  4.6144960927045226e+01  4.6032151808754442e+01  4.5886650735803578e+01  4.5697505074180739e+01  4.5448978958487068e+01  4.5117662261548276e+01  4.4667189069482077e+01  4.4037913906464567e+01  4.3124960710947420e+01  4.1726278089810130e+01  3.9401483225573060e+01  3.5013599483843940e+01  2.4879739806389104e+01  0.0000000000000000e+00  0.0000000000000000e+00  1.4507285280567801e+01  2.4522781838901217e+01  3.0571471393729116e+01  3.4295375732141125e+01  3.6711530382705831e+01  3.8356144351204783e+01  3.9518818829827765e+01  4.0364871172912373e+01  4.0994114572876214e+01  4.1469882382923842e+01  4.1834097663275870e+01  4.2115515698417866e+01  4.2334455011155612e+01  4.2505632492567422e+01  4.2639928630052843e+01  4.2745524573828661e+01  4.2828657144678843e+01  4.2894134008363210e+01  4.2945693945629948e+01  4.2986264441567528e+01  4.3018149566921629e+01  4.3043169475658999e+01  4.3062765618268756e+01  4.3078081187924852e+01  4.3090023350563527e+01  4.3099311853771901e+01  4.3106517296443513e+01  4.3112091445014784e+01  4.3116391360322091e+01  4.3119698660598253e+01  4.3122234931704604e+01  4.3124174066468719e+01  4.3125652145054389e+01  4.3126775340212184e+01  4.3127626233187925e+01  4.3128268849864455e+01  4.3128752666716728e+01  4.3129115788395218e+01  4.3129387460372378e+01  4.3129590049026504e+01  4.3129740596278488e+01  4.3129852035277857e+01  4.3129934136773777e+01  4.3129994242005537e+01  4.3130037826640709e+01  4.3130068931018869e+01  4.3130090484349466e+01  4.3130104544235159e+01  4.3130112467674486e+01  4.3130115025308264e+01  4.3130112466888349e+01  4.3130104542595184e+01  4.3130090481715996e+01  4.3130068927170662e+01  4.3130037821260181e+01  4.3129994234658099e+01  4.3129934126880784e+01  4.3129852022081984e+01  4.3129740578799414e+01  4.3129590026007271e+01  4.3129387430213725e+01  4.3129115749076661e+01  4.3128752615702815e+01  4.3128268783995473e+01  4.3127626148552821e+01  4.3126775232004483e+01  4.3125652007409997e+01  4.3124173892287473e+01  4.3122234712457995e+01  4.3119698386126508e+01  4.3116391018627468e+01  4.3112091022058074e+01  4.3106516775955015e+01  4.3099311217088776e+01  4.3090022576509270e+01  4.3078080252747547e+01  4.3062764495657085e+01  4.3043168136854725e+01  4.3018147980946267e+01  4.2986262575579076e+01  4.2945691765420449e+01  4.2894131479000215e+01  4.2828654231285114e+01  4.2745521242481963e+01  4.2639924848772900e+01  4.2505628232339056e+01  4.2334450246921236e+01  4.2115510409949778e+01  4.1834091835818839e+01  4.1469876007474468e+01  4.0994107645935642e+01  4.0364863695505996e+01  3.9518810805507371e+01  3.8356135782591345e+01  3.6711521265793273e+01  3.4295366046880908e+01  3.0571461088514823e+01  2.4522770811580077e+01  1.4507273437828710e+01  0.0000000000000000e+00  0.0000000000000000e+00  9.8845449101017611e+00  1.8006231023920581e+01  2.3940248143934529e+01  2.8110435877356878e+01  3.1050036510342338e+01  3.3158694942361194e+01  3.4701522593376687e+01  3.5850762144454968e+01  3.6719721237759302e+01  3.7384688329591690e+01  3.7898352813865664e+01  3.8298004058835765e+01  3.8610621081137502e+01  3.8856104040112044e+01  3.9049376710880964e+01  3.9201788115571958e+01  3.9322069072591155e+01  3.9416999601891916e+01  3.9491884315256605e+01  3.9550897576095885e+01  3.9597338533582636e+01  3.9633822571531645e+01  3.9662427063933997e+01  3.9684803716060721e+01  3.9702266065703043e+01  3.9715858235292664e+01  3.9726409334539611e+01  3.9734576744427770e+01  3.9740880693377811e+01  3.9745731952190503e+01  3.9749454051630629e+01  3.9752301115645878e+01  3.9754472170891916e+01  3.9756122616813776e+01  3.9757373404486614e+01  3.9758318366011885e+01  3.9759030051979828e+01  3.9759564367034564e+01  3.9759964239088653e+01  3.9760262513449305e+01  3.9760484226952364e+01  3.9760648387586357e+01  3.9760769360796743e+01  3.9760857943719671e+01  3.9760922192225664e+01  3.9760968052204397e+01  3.9760999835457973e+01  3.9761020571430478e+01  3.9761032258398110e+01  3.9761036031327727e+01  3.9761032258086587e+01  3.9761020570772111e+01  3.9760999834379135e+01  3.9760968050586683e+01  3.9760922189895908e+01  3.9760857940435869e+01  3.9760769356228842e+01  3.9760648381291304e+01  3.9760484218342143e+01  3.9760262501750638e+01  3.9759964223292798e+01  3.9759564345835557e+01  3.9759030023699921e+01  3.9758318328511649e+01  3.9757373355059080e+01  3.9756122552060582e+01  3.9754472086581167e+01  3.9752301006551853e+01  3.9749453911356319e+01  3.9745731772975660e+01  3.9740880465896588e+01  3.9734576457582953e+01  3.9726408975262039e+01  3.9715857788357312e+01  3.9702265513575895e+01  3.9684803038793099e+01  3.9662426239122283e+01  3.9633821574362429e+01  3.9597337336981766e+01  3.9550896150998085e+01  3.9491882631008735e+01  3.9416997626794050e+01  3.9322066774571326e+01  3.9201785462976183e+01  3.9049373673343752e+01  3.8856100589453710e+01  3.8610617192213297e+01  3.8297999710237896e+01  3.7898347988355013e+01  3.7384683014108234e+01  3.6719715422831214e+01  3.5850755822786304e+01  3.4701515757341866e+01  3.3158687580060153e+01  3.1050028599800413e+01  2.8110427378586397e+01  2.3940238989837894e+01  1.8006221116153188e+01  9.8845341258587247e+00  0.0000000000000000e+00  0.0000000000000000e+00  7.3304049254306864e+00  1.3825443029735094e+01  1.9089207865464228e+01  2.3150033095847732e+01  2.6223233256853984e+01  2.8543519307906159e+01  3.0304536546663357e+01  3.1651562470440641e+01  3.2690190468354309e+01  3.3496783490657414e+01  3.4126931340324468e+01  3.4621564939338604e+01  3.5011211047673577e+01  3.5318926055714677e+01  3.5562327238285746e+01  3.5755013944084119e+01  3.5907575518038307e+01  3.6028316841816931e+01  3.6123788596861814e+01  3.6199180614549242e+01  3.6258617816268014e+01  3.6305385798248274e+01  3.6342104830589747e+01  3.6370865469570887e+01  3.6393335196518080e+01  3.6410842894281593e+01  3.6424446162519786e+01  3.6434985198715360e+01  3.6443126062987005e+01  3.6449395487613394e+01  3.6454208910137929e+01  3.6457893049955906e+01  3.6460704076838411e+01  3.6462842211419293e+01  3.6464463435281459e+01  3.6465688860043677e+01  3.6466612202385129e+01  3.6467305729259266e+01  3.6467824970304861e+01  3.6468212439459933e+01  3.6468500562622232e+01  3.6468713971035022e+01  3.6468871289462712e+01  3.6468986522996737e+01  3.6469070125557792e+01  3.6469129816043264e+01  3.6469171193950473e+01  3.6469198194616908e+01  3.6469213414474325e+01  3.6469218328473971e+01  3.6469213414735030e+01  3.6469198195141018e+01  3.6469171194741996e+01  3.6469129817104616e+01  3.6469070126884880e+01  3.6468986524572138e+01  3.6468871291245193e+01  3.6468713972945331e+01  3.6468500564523680e+01  3.6468212441132685e+01  3.6467824971411467e+01  3.6467305729300691e+01  3.6466612200644256e+01  3.6465688855514642e+01  3.6464463426581958e+01  3.6462842196684228e+01  3.6460704053592693e+01  3.6457893014965471e+01  3.6454208859238065e+01  3.6449395415515873e+01  3.6443125963068525e+01  3.6434985062792613e+01  3.6424445980617861e+01  3.6410842654407517e+01  3.6393334884452493e+01  3.6370865068695039e+01  3.6342104321767472e+01  3.6305385159784585e+01  3.6258617023966806e+01  3.6199179641890346e+01  3.6123787415315064e+01  3.6028315421302622e+01  3.5907573827534002e+01  3.5755011952362459e+01  3.5562324914750683e+01  3.5318923371280633e+01  3.5011207975609395e+01  3.4621561455969392e+01  3.4126927425459350e+01  3.3496779127582329e+01  3.2690185643204394e+01  3.1651557170742045e+01  3.0304530758817897e+01  2.8543513013398712e+01  2.6223226427040760e+01  2.3150025685472581e+01  1.9089199805715417e+01  1.3825434221955348e+01  7.3303952322616661e+00  0.0000000000000000e+00  0.0000000000000000e+00  5.7095155612994333e+00  1.0966622627945414e+01  1.5489935678057048e+01  1.9205228600611548e+01  2.2175747996107287e+01  2.4520092006664260e+01  2.6361800505240073e+01  2.7808505250341028e+01  2.8947157134951514e+01  2.9845721536062939e+01  3.0556662419966106e+01  3.1120388276323062e+01  3.1568113250878820e+01  3.1924076097131273e+01  3.2207212694435533e+01  3.2432404189159307e+01  3.2611408156626872e+01  3.2753556748572819e+01  3.2866284249038330e+01  3.2955529415251625e+01  3.3026045304985196e+01  3.3081640135862443e+01  3.3125366194140398e+01  3.3159669177517983e+01  3.3186507066900639e+01  3.3207445277522943e+01  3.3223733158631632e+01  3.3236365695655259e+01  3.3246133381717200e+01  3.3253662570509697e+01  3.3259448133012484e+01  3.3263879869564882e+01  3.3267263843663066e+01  3.3269839581567616e+01  3.3271793906158557e+01  3.3273272032962822e+01  3.3274386442672160e+01  3.3275223951815882e+01  3.3275851327188043e+01  3.3276319726891948e+01  3.3276668198976594e+01  3.3276926425667156e+01  3.3277116865596604e+01  3.3277256416977991e+01  3.3277357700282508e+01  3.3277430038831646e+01  3.3277480199030734e+01  3.3277512938120481e+01  3.3277531395742741e+01  3.3277537355806260e+01  3.3277531396656826e+01  3.3277512939993933e+01  3.3277480201954603e+01  3.3277430042943536e+01  3.3277357705767329e+01  3.3277256424068540e+01  3.3277116874572457e+01  3.3276926436851952e+01  3.3276668212731629e+01  3.3276319743605143e+01  3.3275851347255973e+01  3.3275223975616917e+01  3.3274386470527858e+01  3.3273272065084704e+01  3.3271793942576892e+01  3.3269839622039093e+01  3.3267263887553838e+01  3.3263879915706511e+01  3.3259448179528135e+01  3.3253662614610441e+01  3.3246133419468904e+01  3.3236365721719849e+01  3.3223733165988889e+01  3.3207445257183487e+01  3.3186507007623767e+01  3.3159669065552855e+01  3.3125366013012979e+01  3.3081639866233736e+01  3.3026044924608001e+01  3.2955528899053476e+01  3.2866283569354508e+01  3.2753555875547235e+01  3.2611407058787549e+01  3.2432402834159845e+01  3.2207211049933719e+01  3.1924074131752327e+01  3.1568110935182219e+01  3.1120385583663776e+01  3.0556659327110726e+01  2.9845718023395595e+01  2.8947153186083501e+01  2.7808500850928123e+01  2.6361795640821018e+01  2.4520086659376137e+01  2.2175742140236824e+01  1.9205222197121095e+01  1.5489928668381395e+01  1.0966614927047209e+01  5.7095070486825010e+00  0.0000000000000000e+00  0.0000000000000000e+00  4.5829521618588407e+00  8.8964651764001683e+00  1.2747113772798116e+01  1.6047026731774114e+01  1.8796041434662069e+01  2.1045459803138645e+01  2.2866928310071799e+01  2.4333591254721931e+01  2.5511322541353540e+01  2.6455924573828565e+01  2.7213207470638466e+01  2.7820191996000897e+01  2.8306584453565666e+01  2.8696166171560424e+01  2.9007978719524964e+01  2.9257289594307011e+01  2.9456362083699190e+01  2.9615063362587296e+01  2.9741343730774375e+01  2.9841614947639670e+01  2.9921050068917218e+01  2.9983822234248326e+01  3.0033295810202443e+01  3.0072180137437478e+01  3.0102653724104069e+01  3.0126464913625121e+01  3.0145013693570700e+01  3.0159418289872306e+01  3.0170569419250651e+01  3.0179174486450702e+01  3.0185793562913524e+01  3.0190868634218027e+01  3.0194747329124279e+01  3.0197702124627842e+01  3.0199945845567939e+01  3.0201644134217648e+01  3.0202925447782945e+01  3.0203889044587989e+01  3.0204611339001630e+01  3.0205150937880170e+01  3.0205552615142174e+01  3.0205850434213328e+01  3.0206070188983141e+01  3.0206231301354450e+01  3.0206348286392700e+01  3.0206431873593957e+01  3.0206489854100177e+01  3.0206527708118681e+01  3.0206549053738502e+01  3.0206555947239263e+01  3.0206549055368374e+01  3.0206527711469729e+01  3.0206489859357344e+01  3.0206431881040626e+01  3.0206348296417264e+01  3.0206231314458453e+01  3.0206070205790137e+01  3.0205850455477648e+01  3.0205552641756061e+01  3.0205150970877412e+01  3.0204611379555757e+01  3.0203889094002598e+01  3.0202925507469832e+01  3.0201644205659715e+01  3.0199945930262484e+01  3.0197702224005081e+01  3.0194747444436867e+01  3.0190868766396509e+01  3.0185793712383877e+01  3.0179174652911726e+01  3.0170569601409593e+01  3.0159418485141472e+01  3.0145013897730230e+01  3.0126465120462250e+01  3.0102653925043448e+01  3.0072180321183573e+01  3.0033295962419576e+01  2.9983822337309409e+01  2.9921050101755270e+01  2.9841614885737787e+01  2.9741343546327499e+01  2.9615063024863527e+01  2.9456361559616948e+01  2.9257288849227823e+01  2.9007977718240657e+01  2.8696164879425460e+01  2.8306582837695288e+01  2.7820190026423759e+01  2.7213205121260305e+01  2.6455921823037730e+01  2.5511319372081825e+01  2.4333587653772678e+01  2.2866924266548210e+01  2.1045455305857921e+01  1.8796036468531263e+01  1.6047021273214725e+01  1.2747107784378333e+01  8.8964586007877759e+00  4.5829449151248287e+00  0.0000000000000000e+00  0.0000000000000000e+00  3.7499242279234348e+00  7.3278810280973881e+00  1.0599372788776776e+01  1.3486725176589538e+01  1.5966679313346942e+01  1.8055198388590870e+01  1.9790244149541682e+01  2.1218445356728214e+01  2.2386853028130442e+01  2.3338726412386219e+01  2.4111875791781610e+01  2.4738403262645168e+01  2.5245106826836100e+01  2.5654137280821413e+01  2.5983700410896038e+01  2.6248711022288038e+01  2.6461364544667557e+01  2.6631620450112845e+01  2.6767604050681967e+01  2.6875937533378437e+01  2.6962011641132573e+01  2.7030208401023167e+01  2.7084083791375900e+01  2.7126517705501577e+01  2.7159837202517657e+01  2.7185917889458771e+01  2.7206267348108760e+01  2.7222093776250475e+01  2.7234362422563759e+01  2.7243841925618831e+01  2.7251142293586621e+01  2.7256745960987544e+01  2.7261033115398185e+01  2.7264302287868620e+01  2.7266787036357815e+01  2.7268669414636612e+01  2.7270090804492035e+01  2.7271160592642961e+01  2.7271963092442380e+01  2.7272563041761281e+01  2.7273009950479270e+01  2.7273341522148826e+01  2.7273586333314203e+01  2.7273765919504395e+01  2.7273896388086879e+01  2.7273989654087472e+01  2.7274054374974860e+01  2.7274096643580656e+01  2.7274120484157635e+01  2.7274128184499329e+01  2.7274120486545502e+01  2.7274096648495735e+01  2.7274054382700356e+01  2.7273989665059013e+01  2.7273896402904985e+01  2.7273765938950646e+01  2.7273586358369766e+01  2.7273341554014998e+01  2.7273009990597771e+01  2.7272563091832748e+01  2.7271963154440495e+01  2.7271160668820745e+01  2.7270090897376317e+01  2.7268669527005706e+01  2.7266787171197187e+01  2.7264302448298132e+01  2.7261033304564638e+01  2.7256746181915908e+01  2.7251142548984127e+01  2.7243842217627531e+01  2.7234362752458598e+01  2.7222094144083893e+01  2.7206267752306541e+01  2.7185918326377340e+01  2.7159837665978998e+01  2.7126518186329164e+01  2.7084084276962020e+01  2.7030208874964249e+01  2.6962012082975019e+01  2.6875937918519483e+01  2.6767604350470183e+01  2.6631620632186767e+01  2.6461364573560306e+01  2.6248710860308350e+01  2.5983700019272355e+01  2.5654136621066232e+01  2.5245105862253762e+01  2.4738401959871005e+01  2.4111874122206185e+01  2.3338724353290562e+01  2.2386850563341959e+01  2.1218442476608207e+01  1.9790240850139920e+01  1.8055194669855677e+01  1.5966675176359972e+01  1.3486720619892134e+01  1.0599367803953594e+01  7.3278755948955459e+00  3.7499183093483155e+00  0.0000000000000000e+00  0.0000000000000000e+00  3.1065985881556131e+00  6.0976302487201837e+00  8.8775655421515189e+00  1.1383135843365748e+01  1.3585081891196717e+01  1.5482140416067050e+01  1.7091977965056717e+01  1.8442677408338167e+01  1.9566381187658841e+01  2.0495243037517170e+01  2.1259199436743582e+01  2.1884961010738468e+01  2.2395734181373523e+01  2.2811337120061047e+01  2.3148502334508322e+01  2.3421247113164689e+01  2.3641248762936801e+01  2.3818194226212746e+01  2.3960091779921498e+01  2.4073542018807697e+01  2.4163969941667020e