<?xml version="1.0"?>
<VTKFile type="UnstructuredGrid"  version="0.1"  >
<UnstructuredGrid>
<Piece  NumberOfPoints="10201" NumberOfCells="20000">
<Points>
<DataArray  type="Float64"  NumberOfComponents="3"  format="ascii">0 0 0  0.01 0 0  0.02 0 0  0.03 0 0  0.04 0 0  0.05 0 0  0.06 0 0  0.07000000000000001 0 0  0.08 0 0  0.09 0 0  0.1 0 0  0.11 0 0  0.12 0 0  0.13 0 0  0.14 0 0  0.15 0 0  0.16 0 0  0.17 0 0  0.18 0 0  0.19 0 0  0.2 0 0  0.21 0 0  0.22 0 0  0.23 0 0  0.24 0 0  0.25 0 0  0.26 0 0  0.27 0 0  0.28 0 0  0.29 0 0  0.3 0 0  0.31 0 0  0.32 0 0  0.33 0 0  0.34 0 0  0.35 0 0  0.36 0 0  0.37 0 0  0.38 0 0  0.39 0 0  0.4 0 0  0.41 0 0  0.42 0 0  0.43 0 0  0.44 0 0  0.45 0 0  0.46 0 0  0.47 0 0  0.48 0 0  0.49 0 0  0.5 0 0  0.51 0 0  0.52 0 0  0.53 0 0  0.54 0 0  0.55 0 0  0.5600000000000001 0 0  0.57 0 0  0.58 0 0  0.59 0 0  0.6 0 0  0.61 0 0  0.62 0 0  0.63 0 0  0.64 0 0  0.65 0 0  0.66 0 0  0.67 0 0  0.68 0 0  0.6899999999999999 0 0  0.7 0 0  0.71 0 0  0.72 0 0  0.73 0 0  0.74 0 0  0.75 0 0  0.76 0 0  0.77 0 0  0.78 0 0  0.79 0 0  0.8 0 0  0.8100000000000001 0 0  0.82 0 0  0.83 0 0  0.84 0 0  0.85 0 0  0.86 0 0  0.87 0 0  0.88 0 0  0.89 0 0  0.9 0 0  0.91 0 0  0.92 0 0  0.93 0 0  0.9399999999999999 0 0  0.95 0 0  0.96 0 0  0.97 0 0  0.98 0 0  0.99 0 0  1 0 0  0 0.01 0  0.01 0.01 0  0.02 0.01 0  0.03 0.01 0  0.04 0.01 0  0.05 0.01 0  0.06 0.01 0  0.07000000000000001 0.01 0  0.08 0.01 0  0.09 0.01 0  0.1 0.01 0  0.11 0.01 0  0.12 0.01 0  0.13 0.01 0  0.14 0.01 0  0.15 0.01 0  0.16 0.01 0  0.17 0.01 0  0.18 0.01 0  0.19 0.01 0  0.2 0.01 0  0.21 0.01 0  0.22 0.01 0  0.23 0.01 0  0.24 0.01 0  0.25 0.01 0  0.26 0.01 0  0.27 0.01 0  0.28 0.01 0  0.29 0.01 0  0.3 0.01 0  0.31 0.01 0  0.32 0.01 0  0.33 0.01 0  0.34 0.01 0  0.35 0.01 0  0.36 0.01 0  0.37 0.01 0  0.38 0.01 0  0.39 0.01 0  0.4 0.01 0  0.41 0.01 0  0.42 0.01 0  0.43 0.01 0  0.44 0.01 0  0.45 0.01 0  0.46 0.01 0  0.47 0.01 0  0.48 0.01 0  0.49 0.01 0  0.5 0.01 0  0.51 0.01 0  0.52 0.01 0  0.53 0.01 0  0.54 0.01 0  0.55 0.01 0  0.5600000000000001 0.01 0  0.57 0.01 0  0.58 0.01 0  0.59 0.01 0  0.6 0.01 0  0.61 0.01 0  0.62 0.01 0  0.63 0.01 0  0.64 0.01 0  0.65 0.01 0  0.66 0.01 0  0.67 0.01 0  0.68 0.01 0  0.6899999999999999 0.01 0  0.7 0.01 0  0.71 0.01 0  0.72 0.01 0  0.73 0.01 0  0.74 0.01 0  0.75 0.01 0  0.76 0.01 0  0.77 0.01 0  0.78 0.01 0  0.79 0.01 0  0.8 0.01 0  0.8100000000000001 0.01 0  0.82 0.01 0  0.83 0.01 0  0.84 0.01 0  0.85 0.01 0  0.86 0.01 0  0.87 0.01 0  0.88 0.01 0  0.89 0.01 0  0.9 0.01 0  0.91 0.01 0  0.92 0.01 0  0.93 0.01 0  0.9399999999999999 0.01 0  0.95 0.01 0  0.96 0.01 0  0.97 0.01 0  0.98 0.01 0  0.99 0.01 0  1 0.01 0  0 0.02 0  0.01 0.02 0  0.02 0.02 0  0.03 0.02 0  0.04 0.02 0  0.05 0.02 0  0.06 0.02 0  0.07000000000000001 0.02 0  0.08 0.02 0  0.09 0.02 0  0.1 0.02 0  0.11 0.02 0  0.12 0.02 0  0.13 0.02 0  0.14 0.02 0  0.15 0.02 0  0.16 0.02 0  0.17 0.02 0  0.18 0.02 0  0.19 0.02 0  0.2 0.02 0  0.21 0.02 0  0.22 0.02 0  0.23 0.02 0  0.24 0.02 0  0.25 0.02 0  0.26 0.02 0  0.27 0.02 0  0.28 0.02 0  0.29 0.02 0  0.3 0.02 0  0.31 0.02 0  0.32 0.02 0  0.33 0.02 0  0.34 0.02 0  0.35 0.02 0  0.36 0.02 0  0.37 0.02 0  0.38 0.02 0  0.39 0.02 0  0.4 0.02 0  0.41 0.02 0  0.42 0.02 0  0.43 0.02 0  0.44 0.02 0  0.45 0.02 0  0.46 0.02 0  0.47 0.02 0  0.48 0.02 0  0.49 0.02 0  0.5 0.02 0  0.51 0.02 0  0.52 0.02 0  0.53 0.02 0  0.54 0.02 0  0.55 0.02 0  0.5600000000000001 0.02 0  0.57 0.02 0  0.58 0.02 0  0.59 0.02 0  0.6 0.02 0  0.61 0.02 0  0.62 0.02 0  0.63 0.02 0  0.64 0.02 0  0.65 0.02 0  0.66 0.02 0  0.67 0.02 0  0.68 0.02 0  0.6899999999999999 0.02 0  0.7 0.02 0  0.71 0.02 0  0.72 0.02 0  0.73 0.02 0  0.74 0.02 0  0.75 0.02 0  0.76 0.02 0  0.77 0.02 0  0.78 0.02 0  0.79 0.02 0  0.8 0.02 0  0.8100000000000001 0.02 0  0.82 0.02 0  0.83 0.02 0  0.84 0.02 0  0.85 0.02 0  0.86 0.02 0  0.87 0.02 0  0.88 0.02 0  0.89 0.02 0  0.9 0.02 0  0.91 0.02 0  0.92 0.02 0  0.93 0.02 0  0.9399999999999999 0.02 0  0.95 0.02 0  0.96 0.02 0  0.97 0.02 0  0.98 0.02 0  0.99 0.02 0  1 0.02 0  0 0.03 0  0.01 0.03 0  0.02 0.03 0  0.03 0.03 0  0.04 0.03 0  0.05 0.03 0  0.06 0.03 0  0.07000000000000001 0.03 0  0.08 0.03 0  0.09 0.03 0  0.1 0.03 0  0.11 0.03 0  0.12 0.03 0  0.13 0.03 0  0.14 0.03 0  0.15 0.03 0  0.16 0.03 0  0.17 0.03 0  0.18 0.03 0  0.19 0.03 0  0.2 0.03 0  0.21 0.03 0  0.22 0.03 0  0.23 0.03 0  0.24 0.03 0  0.25 0.03 0  0.26 0.03 0  0.27 0.03 0  0.28 0.03 0  0.29 0.03 0  0.3 0.03 0  0.31 0.03 0  0.32 0.03 0  0.33 0.03 0  0.34 0.03 0  0.35 0.03 0  0.36 0.03 0  0.37 0.03 0  0.38 0.03 0  0.39 0.03 0  0.4 0.03 0  0.41 0.03 0  0.42 0.03 0  0.43 0.03 0  0.44 0.03 0  0.45 0.03 0  0.46 0.03 0  0.47 0.03 0  0.48 0.03 0  0.49 0.03 0  0.5 0.03 0  0.51 0.03 0  0.52 0.03 0  0.53 0.03 0  0.54 0.03 0  0.55 0.03 0  0.5600000000000001 0.03 0  0.57 0.03 0  0.58 0.03 0  0.59 0.03 0  0.6 0.03 0  0.61 0.03 0  0.62 0.03 0  0.63 0.03 0  0.64 0.03 0  0.65 0.03 0  0.66 0.03 0  0.67 0.03 0  0.68 0.03 0  0.6899999999999999 0.03 0  0.7 0.03 0  0.71 0.03 0  0.72 0.03 0  0.73 0.03 0  0.74 0.03 0  0.75 0.03 0  0.76 0.03 0  0.77 0.03 0  0.78 0.03 0  0.79 0.03 0  0.8 0.03 0  0.8100000000000001 0.03 0  0.82 0.03 0  0.83 0.03 0  0.84 0.03 0  0.85 0.03 0  0.86 0.03 0  0.87 0.03 0  0.88 0.03 0  0.89 0.03 0  0.9 0.03 0  0.91 0.03 0  0.92 0.03 0  0.93 0.03 0  0.9399999999999999 0.03 0  0.95 0.03 0  0.96 0.03 0  0.97 0.03 0  0.98 0.03 0  0.99 0.03 0  1 0.03 0  0 0.04 0  0.01 0.04 0  0.02 0.04 0  0.03 0.04 0  0.04 0.04 0  0.05 0.04 0  0.06 0.04 0  0.07000000000000001 0.04 0  0.08 0.04 0  0.09 0.04 0  0.1 0.04 0  0.11 0.04 0  0.12 0.04 0  0.13 0.04 0  0.14 0.04 0  0.15 0.04 0  0.16 0.04 0  0.17 0.04 0  0.18 0.04 0  0.19 0.04 0  0.2 0.04 0  0.21 0.04 0  0.22 0.04 0  0.23 0.04 0  0.24 0.04 0  0.25 0.04 0  0.26 0.04 0  0.27 0.04 0  0.28 0.04 0  0.29 0.04 0  0.3 0.04 0  0.31 0.04 0  0.32 0.04 0  0.33 0.04 0  0.34 0.04 0  0.35 0.04 0  0.36 0.04 0  0.37 0.04 0  0.38 0.04 0  0.39 0.04 0  0.4 0.04 0  0.41 0.04 0  0.42 0.04 0  0.43 0.04 0  0.44 0.04 0  0.45 0.04 0  0.46 0.04 0  0.47 0.04 0  0.48 0.04 0  0.49 0.04 0  0.5 0.04 0  0.51 0.04 0  0.52 0.04 0  0.53 0.04 0  0.54 0.04 0  0.55 0.04 0  0.5600000000000001 0.04 0  0.57 0.04 0  0.58 0.04 0  0.59 0.04 0  0.6 0.04 0  0.61 0.04 0  0.62 0.04 0  0.63 0.04 0  0.64 0.04 0  0.65 0.04 0  0.66 0.04 0  0.67 0.04 0  0.68 0.04 0  0.6899999999999999 0.04 0  0.7 0.04 0  0.71 0.04 0  0.72 0.04 0  0.73 0.04 0  0.74 0.04 0  0.75 0.04 0  0.76 0.04 0  0.77 0.04 0  0.78 0.04 0  0.79 0.04 0  0.8 0.04 0  0.8100000000000001 0.04 0  0.82 0.04 0  0.83 0.04 0  0.84 0.04 0  0.85 0.04 0  0.86 0.04 0  0.87 0.04 0  0.88 0.04 0  0.89 0.04 0  0.9 0.04 0  0.91 0.04 0  0.92 0.04 0  0.93 0.04 0  0.9399999999999999 0.04 0  0.95 0.04 0  0.96 0.04 0  0.97 0.04 0  0.98 0.04 0  0.99 0.04 0  1 0.04 0  0 0.05 0  0.01 0.05 0  0.02 0.05 0  0.03 0.05 0  0.04 0.05 0  0.05 0.05 0  0.06 0.05 0  0.07000000000000001 0.05 0  0.08 0.05 0  0.09 0.05 0  0.1 0.05 0  0.11 0.05 0  0.12 0.05 0  0.13 0.05 0  0.14 0.05 0  0.15 0.05 0  0.16 0.05 0  0.17 0.05 0  0.18 0.05 0  0.19 0.05 0  0.2 0.05 0  0.21 0.05 0  0.22 0.05 0  0.23 0.05 0  0.24 0.05 0  0.25 0.05 0  0.26 0.05 0  0.27 0.05 0  0.28 0.05 0  0.29 0.05 0  0.3 0.05 0  0.31 0.05 0  0.32 0.05 0  0.33 0.05 0  0.34 0.05 0  0.35 0.05 0  0.36 0.05 0  0.37 0.05 0  0.38 0.05 0  0.39 0.05 0  0.4 0.05 0  0.41 0.05 0  0.42 0.05 0  0.43 0.05 0  0.44 0.05 0  0.45 0.05 0  0.46 0.05 0  0.47 0.05 0  0.48 0.05 0  0.49 0.05 0  0.5 0.05 0  0.51 0.05 0  0.52 0.05 0  0.53 0.05 0  0.54 0.05 0  0.55 0.05 0  0.5600000000000001 0.05 0  0.57 0.05 0  0.58 0.05 0  0.59 0.05 0  0.6 0.05 0  0.61 0.05 0  0.62 0.05 0  0.63 0.05 0  0.64 0.05 0  0.65 0.05 0  0.66 0.05 0  0.67 0.05 0  0.68 0.05 0  0.6899999999999999 0.05 0  0.7 0.05 0  0.71 0.05 0  0.72 0.05 0  0.73 0.05 0  0.74 0.05 0  0.75 0.05 0  0.76 0.05 0  0.77 0.05 0  0.78 0.05 0  0.79 0.05 0  0.8 0.05 0  0.8100000000000001 0.05 0  0.82 0.05 0  0.83 0.05 0  0.84 0.05 0  0.85 0.05 0  0.86 0.05 0  0.87 0.05 0  0.88 0.05 0  0.89 0.05 0  0.9 0.05 0  0.91 0.05 0  0.92 0.05 0  0.93 0.05 0  0.9399999999999999 0.05 0  0.95 0.05 0  0.96 0.05 0  0.97 0.05 0  0.98 0.05 0  0.99 0.05 0  1 0.05 0  0 0.06 0  0.01 0.06 0  0.02 0.06 0  0.03 0.06 0  0.04 0.06 0  0.05 0.06 0  0.06 0.06 0  0.07000000000000001 0.06 0  0.08 0.06 0  0.09 0.06 0  0.1 0.06 0  0.11 0.06 0  0.12 0.06 0  0.13 0.06 0  0.14 0.06 0  0.15 0.06 0  0.16 0.06 0  0.17 0.06 0  0.18 0.06 0  0.19 0.06 0  0.2 0.06 0  0.21 0.06 0  0.22 0.06 0  0.23 0.06 0  0.24 0.06 0  0.25 0.06 0  0.26 0.06 0  0.27 0.06 0  0.28 0.06 0  0.29 0.06 0  0.3 0.06 0  0.31 0.06 0  0.32 0.06 0  0.33 0.06 0  0.34 0.06 0  0.35 0.06 0  0.36 0.06 0  0.37 0.06 0  0.38 0.06 0  0.39 0.06 0  0.4 0.06 0  0.41 0.06 0  0.42 0.06 0  0.43 0.06 0  0.44 0.06 0  0.45 0.06 0  0.46 0.06 0  0.47 0.06 0  0.48 0.06 0  0.49 0.06 0  0.5 0.06 0  0.51 0.06 0  0.52 0.06 0  0.53 0.06 0  0.54 0.06 0  0.55 0.06 0  0.5600000000000001 0.06 0  0.57 0.06 0  0.58 0.06 0  0.59 0.06 0  0.6 0.06 0  0.61 0.06 0  0.62 0.06 0  0.63 0.06 0  0.64 0.06 0  0.65 0.06 0  0.66 0.06 0  0.67 0.06 0  0.68 0.06 0  0.6899999999999999 0.06 0  0.7 0.06 0  0.71 0.06 0  0.72 0.06 0  0.73 0.06 0  0.74 0.06 0  0.75 0.06 0  0.76 0.06 0  0.77 0.06 0  0.78 0.06 0  0.79 0.06 0  0.8 0.06 0  0.8100000000000001 0.06 0  0.82 0.06 0  0.83 0.06 0  0.84 0.06 0  0.85 0.06 0  0.86 0.06 0  0.87 0.06 0  0.88 0.06 0  0.89 0.06 0  0.9 0.06 0  0.91 0.06 0  0.92 0.06 0  0.93 0.06 0  0.9399999999999999 0.06 0  0.95 0.06 0  0.96 0.06 0  0.97 0.06 0  0.98 0.06 0  0.99 0.06 0  1 0.06 0  0 0.07000000000000001 0  0.01 0.07000000000000001 0  0.02 0.07000000000000001 0  0.03 0.07000000000000001 0  0.04 0.07000000000000001 0  0.05 0.07000000000000001 0  0.06 0.07000000000000001 0  0.07000000000000001 0.07000000000000001 0  0.08 0.07000000000000001 0  0.09 0.07000000000000001 0  0.1 0.07000000000000001 0  0.11 0.07000000000000001 0  0.12 0.07000000000000001 0  0.13 0.07000000000000001 0  0.14 0.07000000000000001 0  0.15 0.07000000000000001 0  0.16 0.07000000000000001 0  0.17 0.0700
[...]
<PointData  Scalars="f_17"> 
<DataArray  type="Float64"  Name="f_17"  format="ascii">0.0000000000000000e+00  5.0000000000000000e+01  5.0000000000000000e+01  5.0000000000000000e+01  5.0000000000000000e+01  5.0000000000000000e+01  5.0000000000000000e+01  5.0000000000000000e+01  5.0000000000000000e+01  5.0000000000000000e+01  5.0000000000000000e+01  5.0000000000000000e+01  5.0000000000000000e+01  5.0000000000000000e+01  5.0000000000000000e+01  5.0000000000000000e+01  5.0000000000000000e+01  5.0000000000000000e+01  5.0000000000000000e+01  5.0000000000000000e+01  5.0000000000000000e+01  5.0000000000000000e+01  5.0000000000000000e+01  5.0000000000000000e+01  5.0000000000000000e+01  5.0000000000000000e+01  5.0000000000000000e+01  5.0000000000000000e+01  5.0000000000000000e+01  5.0000000000000000e+01  5.0000000000000000e+01  5.0000000000000000e+01  5.0000000000000000e+01  5.0000000000000000e+01  5.0000000000000000e+01  5.0000000000000000e+01  5.0000000000000000e+01  5.0000000000000000e+01  5.0000000000000000e+01  5.0000000000000000e+01  5.0000000000000000e+01  5.0000000000000000e+01  5.0000000000000000e+01  5.0000000000000000e+01  5.0000000000000000e+01  5.0000000000000000e+01  5.0000000000000000e+01  5.0000000000000000e+01  5.0000000000000000e+01  5.0000000000000000e+01  5.0000000000000000e+01  5.0000000000000000e+01  5.0000000000000000e+01  5.0000000000000000e+01  5.0000000000000000e+01  5.0000000000000000e+01  5.0000000000000000e+01  5.0000000000000000e+01  5.0000000000000000e+01  5.0000000000000000e+01  5.0000000000000000e+01  5.0000000000000000e+01  5.0000000000000000e+01  5.0000000000000000e+01  5.0000000000000000e+01  5.0000000000000000e+01  5.0000000000000000e+01  5.0000000000000000e+01  5.0000000000000000e+01  5.0000000000000000e+01  5.0000000000000000e+01  5.0000000000000000e+01  5.0000000000000000e+01  5.0000000000000000e+01  5.0000000000000000e+01  5.0000000000000000e+01  5.0000000000000000e+01  5.0000000000000000e+01  5.0000000000000000e+01  5.0000000000000000e+01  5.0000000000000000e+01  5.0000000000000000e+01  5.0000000000000000e+01  5.0000000000000000e+01  5.0000000000000000e+01  5.0000000000000000e+01  5.0000000000000000e+01  5.0000000000000000e+01  5.0000000000000000e+01  5.0000000000000000e+01  5.0000000000000000e+01  5.0000000000000000e+01  5.0000000000000000e+01  5.0000000000000000e+01  5.0000000000000000e+01  5.0000000000000000e+01  5.0000000000000000e+01  5.0000000000000000e+01  5.0000000000000000e+01  5.0000000000000000e+01  0.0000000000000000e+00  0.0000000000000000e+00  2.4965576840588074e+01  3.5184828386434525e+01  3.9657237010439822e+01  4.2065274945745671e+01  4.3545526224918184e+01  4.4538009405492573e+01  4.5244445279371632e+01  4.5769417268958129e+01  4.6172319360773365e+01  4.6489309159471873e+01  4.6743632544541072e+01  4.6950904981915819e+01  4.7122001338849941e+01  4.7264726753472296e+01  4.7384828110809259e+01  4.7486630585189573e+01  4.7573451771686521e+01  4.7647878989713384e+01  4.7711959702898007e+01  4.7767335216075161e+01  4.7815336420010027e+01  4.7857053581792250e+01  4.7893388034764612e+01  4.7925091020334293e+01  4.7952793262734254e+01  4.7977027761482809e+01  4.7998247553333186e+01  4.8016839696912960e+01  4.8033136388641616e+01  4.8047423876827885e+01  4.8059949669030601e+01  4.8070928404090381e+01  4.8080546670167109e+01  4.8088966983812654e+01  4.8096331095795357e+01  4.8102762752375909e+01  4.8108370012688319e+01  4.8113247201461796e+01  4.8117476559819920e+01  4.8121129644093543e+01  4.8124268512568911e+01  4.8126946732207053e+01  4.8129210231106278e+01  4.8131098017466556e+01  4.8132642781767672e+01  4.8133871395571518e+01  4.8134805317638090e+01  4.8135460915765748e+01  4.8135849710832936e+01  4.8135978547836793e+01  4.8135849697229396e+01  4.8135460888485099e+01  4.8134805276533939e+01  4.8133871340425841e+01  4.8132642712292515e+01  4.8131097933306691e+01  4.8129210131841994e+01  4.8126946617357994e+01  4.8124268381598263e+01  4.8121129496412905e+01  4.8117476394794721e+01  4.8113247018417503e+01  4.8108369810916741e+01  4.8102762531142211e+01  4.8096330854345894e+01  4.8088966721382974e+01  4.8080546385990402e+01  4.8070928097405982e+01  4.8059949339093365e+01  4.8047423522917441e+01  4.8033136010071665e+01  4.8016839293040753e+01  4.7998247123568959e+01  4.7977027305298833e+01  4.7952792779673892e+01  4.7925090510020276e+01  4.7893387496907110e+01  4.7857053016196105e+01  4.7815335826581027e+01  4.7767334594825350e+01  4.7711959053950238e+01  4.7647878313304261e+01  4.7573451068167721e+01  4.7486629855028049e+01  4.7384827354585163e+01  4.7264725971875095e+01  4.7122000532672324e+01  4.6950904152044551e+01  4.6743631691945005e+01  4.6489308285185736e+01  4.6172318465875236e+01  4.5769416354538819e+01  4.5244444346488407e+01  4.4538008455092339e+01  4.3545525257688212e+01  4.2065273961761001e+01  3.9657236008110118e+01  3.5184827358462805e+01  2.4965575754054075e+01  0.0000000000000000e+00  0.0000000000000000e+00  1.4677628620693458e+01  2.4862607104381123e+01  3.1079059335119123e+01  3.4968185080167778e+01  3.7546241592318317e+01  3.9348715652906009e+01  4.0664552859913677e+01  4.1658490145854401e+01  4.2429841779964754e+01  4.3041527723709194e+01  4.3535144935012049e+01  4.3939209475672115e+01  4.4273885130729944e+01  4.4553814402390017e+01  4.4789878147345931e+01  4.4990325909750055e+01  4.5161523372553589e+01  4.5308459465094906e+01  4.5435098347873513e+01  4.5544628759643103e+01  4.5639643923229421e+01  4.5722273516515124e+01  4.5794281947377094e+01  4.5857142547242297e+01  4.5912094293076095e+01  4.5960185677004773e+01  4.6002309000541047e+01  4.6039227450514183e+01  4.6071596673868818e+01  4.6099982117088047e+01  4.6124873073452619e+01  4.6146694148109660e+01  4.6165814680372733e+01  4.6182556536660805e+01  4.6197200593458042e+01  4.6209992158879530e+01  4.6221145527649405e+01  4.6230847823120293e+01  4.6239262248175159e+01  4.6246530842134391e+01  4.6252776821424156e+01  4.6258106566474012e+01  4.6262611305155154e+01  4.6266368533325860e+01  4.6269443205168827e+01  4.6271888719571535e+01  4.6273747723485101e+01  4.6275052748749971e+01  4.6275826695085073e+01  4.6276083168650004e+01  4.6275826682656955e+01  4.6275052723825311e+01  4.6273747685927709e+01  4.6271888669178630e+01  4.6269443141672674e+01  4.6266368456395867e+01  4.6262611214400984e+01  4.6258106461449103e+01  4.6252776701629287e+01  4.6246530707022387e+01  4.6239262097156015e+01  4.6230847655566954e+01  4.6221145342903363e+01  4.6209991956257724e+01  4.6197200372259793e+01  4.6182556296175164e+01  4.6165814419886466e+01  4.6146693866914823e+01  4.6124872770855227e+01  4.6099981792416273e+01  4.6071596326481526e+01  4.6039227079809088e+01  4.6002308605963179e+01  4.5960185258054516e+01  4.5912093849316371e+01  4.5857142078305770e+01  4.5794281452972378e+01  4.5722272996432537e+01  4.5639643377345102e+01  4.5544628187922342e+01  4.5435097750372954e+01  4.5308458841962604e+01  4.5161522724027712e+01  4.4990325236155428e+01  4.4789877449088522e+01  4.4553813679948355e+01  4.4273884384643637e+01  4.3939208706526486e+01  4.3535144143418471e+01  4.3041526910278783e+01  4.2429840945273270e+01  4.1658489290394193e+01  4.0664551984024129e+01  3.9348714756664428e+01  3.7546240675355079e+01  3.4968184141327555e+01  3.1079058371848436e+01  2.4862606112172795e+01  1.4677627599287300e+01  0.0000000000000000e+00  0.0000000000000000e+00  1.0136823936682909e+01  1.8509512573227610e+01  2.4691990977926014e+01  2.9106883628623624e+01  3.2286282183635393e+01  3.4628763627622575e+01  3.6398469792174062e+01  3.7766784710606622e+01  3.8846277669468947e+01  3.9712625034103979e+01  4.0418032991660517e+01  4.0999436010718320e+01  4.1483583010065203e+01  4.1890262777391840e+01  4.2234398217905245e+01  4.2527438071211350e+01  4.2778302327416824e+01  4.2994037740759225e+01  4.3180281000244122e+01  4.3341591727428053e+01  4.3481695736581848e+01  4.3603665366895363e+01  4.3710054984828751e+01  4.3803004080241692e+01  4.3884316618436713e+01  4.3955522775605061e+01  4.4017927450809786e+01  4.4072648743765242e+01  4.4120648740747811e+01  4.4162758347651028e+01  4.4199697474334570e+01  4.4232091557517897e+01  4.4260485176129102e+01  4.4285353339539974e+01  4.4307110898952800e+01  4.4326120433692367e+01  4.4342698888990235e+01  4.4357123184043182e+01  4.4369634964340513e+01  4.4380444637303732e+01  4.4389734802805947e+01  4.4397663168390430e+01  4.4404365021660901e+01  4.4409955318375623e+01  4.4414530433477374e+01  4.4418169613042458e+01  4.4420936157478145e+01  4.4422878359874552e+01  4.4424030217939865e+01  4.4424411933181403e+01  4.4424030206744291e+01  4.4422878337419206e+01  4.4420936123635158e+01  4.4418169567621234e+01  4.4414530376226423e+01  4.4409955248984502e+01  4.4404364939762800e+01  4.4397663073565667e+01  4.4389734694585350e+01  4.4380444515173032e+01  4.4369634827744960e+01  4.4357123032392835e+01  4.4342698721665549e+01  4.4326120250050288e+01  4.4307110698333389e+01  4.4285353121273189e+01  4.4260484939541819e+01  4.4232091301941473e+01  4.4199697199112251e+01  4.4162758052145790e+01  4.4120648424349817e+01  4.4072648405899237e+01  4.4017927090942685e+01  4.3955522393252508e+01  4.3884316213169747e+01  4.3803003651692379e+01  4.3710054532695054e+01  4.3603664890945176e+01  4.3481695236655909e+01  4.3341591203441091e+01  4.3180280452185073e+01  4.2994037168689047e+01  4.2778301731464531e+01  4.2527437451567685e+01  4.2234397574813734e+01  4.1890262111136295e+01  4.1483582320953900e+01  4.0999435299063379e+01  4.0418032257752046e+01  3.9712624278176406e+01  3.8846276891657823e+01  3.7766783910891668e+01  3.6398468970302162e+01  3.4628762783001349e+01  3.2286281315186955e+01  2.9106882734606106e+01  2.4691990055840137e+01  1.8509511620340280e+01  1.0136822951688337e+01  0.0000000000000000e+00  0.0000000000000000e+00  7.6608383253130725e+00  1.4484640293032045e+01  2.0073849539644023e+01  2.4455212286310946e+01  2.7842539653991881e+01  3.0469146959367606e+01  3.2527411992971544e+01  3.4161489341827235e+01  3.5476006299960417e+01  3.6546524361009176e+01  3.7427999970012415e+01  3.8160898088152237e+01  3.8775442395625113e+01  3.9294541216882756e+01  3.9735808103106436e+01  4.0112970141476907e+01  4.0436861400741464e+01  4.0716132996894942e+01  4.0957767443559675e+01  4.1167456154040877e+01  4.1349880028793841e+01  4.1508920534828526e+01  4.1647820316378827e+01  4.1769306725928331e+01  4.1875687804550083e+01  4.1968927572091829e+01  4.2050705621491012e+01  4.2122464691393844e+01  4.2185448947179403e+01  4.2240735018216917e+01  4.2289257341139219e+01  4.2331828991865748e+01  4.2369158916126800e+01  4.2401866263458231e+01  4.2430492374740318e+01  4.2455510855272763e+01  4.2477336074683741e+01  4.2496330364803953e+01  4.2512810131977773e+01  4.2527051057408386e+01  4.2539292525281894e+01  4.2549741391495715e+01  4.2558575184269763e+01  4.2565944810531782e+01  4.2571976827829246e+01  4.2576775329909886e+01  4.2580423484472306e+01  4.2582984753478044e+01  4.2584503819480510e+01  4.2585007235374654e+01  4.2584503809565696e+01  4.2582984733587374e+01  4.2580423454484190e+01  4.2576775289643173e+01  4.2571976777044718e+01  4.2565944748934129e+01  4.2558575111510059e+01  4.2549741307174379e+01  4.2539292428952123e+01  4.2527050948580282e+01  4.2512810010122344e+01  4.2496330229358350e+01  4.2477335925056323e+01  4.2455510690849010e+01  4.2430492194888743e+01  4.2401866067536858e+01  4.2369158703489632e+01  4.2331828761869964e+01  4.2289257093151818e+01  4.2240734751621943e+01  4.2185448661384875e+01  4.2122464385838683e+01  4.2050705295651220e+01  4.1968927225486880e+01  4.1875687436748258e+01  4.1769306336551502e+01  4.1647819905106275e+01  4.1508920101399731e+01  4.1349879573009972e+01  4.1167455675764458e+01  4.0957766942713022e+01  4.0716132473456334e+01  4.0436860854738669e+01  4.0112969572978670e+01  3.9735807512210620e+01  3.9294540603700838e+01  3.8775441760262858e+01  3.8160897430685303e+01  3.7427999290455944e+01  3.6546523659279906e+01  3.5476005575829511e+01  3.4161488594861083e+01  3.2527411222457637e+01  3.0469146164224053e+01  2.7842538832665060e+01  2.4455211436688440e+01  2.0073848659058207e+01  1.4484639378437929e+01  7.6608373733496347e+00  0.0000000000000000e+00  0.0000000000000000e+00  6.1132325796652829e+00  1.1772022350487386e+01  1.6692976573096455e+01  2.0799936058371753e+01  2.4154316293785026e+01  2.6873015104098776e+01  2.9078027581107037e+01  3.0875616256303569e+01  3.2351553231465758e+01  3.3572825087312474e+01  3.4591121261547748e+01  3.5446279210065271e+01  3.6169140138486149e+01  3.6783758482700819e+01  3.7309061545421400e+01  3.7760082064915942e+01  3.8148871853602181e+01  3.8485181195735457e+01  3.8776967105955315e+01  3.9030776434754280e+01  3.9252037046008937e+01  3.9445281040198019e+01  3.9614317370233643e+01  3.9762366467296793e+01  3.9892166114444571e+01  4.0006055380945483e+01  4.0106041680567934e+01  4.0193854745958816e+01  4.0270990381179658e+01  4.0338746168817075e+01  4.0398250798798557e+01  4.0450488304915297e+01  4.0496318207734319e+01  4.0536492344419088e+01  4.0571668999171202e+01  4.0602424819599200e+01  4.0629264904827323e+01  4.0652631373567459e+01  4.0672910659497077e+01  4.0690439733213175e+01  4.0705511411843823e+01  4.0718378886861835e+01  4.0729259576073986e+01  4.0738338385834851e+01  4.0745770453260057e+01  4.0751683424790045e+01  4.0756179316267101e+01  4.0759335990238860e+01  4.0761208278091935e+01  4.0761828767523077e+01  4.0761208269497516e+01  4.0759335972991117e+01  4.0756179290248838e+01  4.0751683389826589e+01  4.0745770409120595e+01  4.0738338332234463e+01  4.0729259512675725e+01  4.0718378813279642e+01  4.0705511327645702e+01  4.0690439637924975e+01  4.0672910552606375e+01  4.0652631254528536e+01  4.0629264773065763e+01  4.0602424674517451e+01  4.0571668840154267e+01  4.0536492170840603e+01  4.0496318018962675e+01  4.0450488100320335e+01  4.0398250577757842e+01  4.0338745930722752e+01  4.0270990125444818e+01  4.0193854472023865e+01  4.0106041387906437e+01  4.0006055069069610e+01  3.9892165782910190e+01  3.9762366115707245e+01  3.9614316998242771e+01  3.9445280647512178e+01  3.9252036632387266e+01  3.9030776000007535e+01  3.8776966649942601e+01  3.8485180718359082e+01  3.8148871354799759e+01  3.7760081544649722e+01  3.7309061003664468e+01  3.6783757919419457e+01  3.6169139553617846e+01  3.5446278603491884e+01  3.4591120633062616e+01  3.3572824436580525e+01  3.2351552557975445e+01  3.0875615559309256e+01  2.9078026859561156e+01  2.6873014356575446e+01  2.4154315518401184e+01  2.0799935252720662e+01  1.6692975734209380e+01  1.1772021474792799e+01  6.1132316627833321e+00  0.0000000000000000e+00  0.0000000000000000e+00  5.0541290714292115e+00  9.8364535121262708e+00  1.4151216637851274e+01  1.7908300239535574e+01  2.1105412728026327e+01  2.3791878466486690e+01  2.6037546458213985e+01  2.7913966851342387e+01  2.9485640019665500e+01  3.0807226614182255e+01  3.1923631827810251e+01  3.2871207542618933e+01  3.3679221083567320e+01  3.4371233848105611e+01  3.4966271709709027e+01  3.5479772761084917e+01  3.5924336958060110e+01  3.6310312554953001e+01  3.6646253024900247e+01  3.6939273125608018e+01  3.7195327122857506e+01  3.7419427117891544e+01  3.7615815267295190e+01  3.7788100416715260e+01  3.7939367159304595e+01  3.8072263422950520e+01  3.8189071249493473e+01  3.8291764341803301e+01  3.8382055133060447e+01  3.8461433510202987e+01  3.8531198850193299e+01  3.8592486666229064e+01  3.8646290883535421e+01  3.8693482550310328e+01  3.8734825623396453e+01  3.8770990338848691e+01  3.8802564576157010e+01  3.8830063544990615e+01  3.8853938060055725e+01  3.8874581619274601e+01  3.8892336460156017e+01  3.8907498736744913e+01  3.8920322933226437e+01  3.8931025608795316e+01  3.8939788550765329e+01  3.8946761398273274e+01  3.8952063786678480e+01  3.8955787052366830e+01  3.8957995528706427e+01  3.8958727456032456e+01  3.8957995521463950e+01  3.8955787037824280e+01  3.8952063764721089e+01  3.8946761368730016e+01  3.8939788513410150e+01  3.8931025563348790e+01  3.8920322879358068e+01  3.8907498674075633e+01  3.8892336388261356e+01  3.8874581537687973e+01  3.8853937968272284e+01  3.8830063442471939e+01  3.8802564462335539e+01  3.8770990213132905e+01  3.8734825485176295e+01  3.8693482398963049e+01  3.8646290718431509e+01  3.8592486486738558e+01  3.8531198655691774e+01  3.8461433300078319e+01  3.8382054906718658e+01  3.8291764098674705e+01  3.8189070989038214e+01  3.8072263144663751e+01  3.7939366862720888e+01  3.7788100101412141e+01  3.7615814932895724e+01  3.7419426764065598e+01  3.7195326749321367e+01  3.6939272732122539e+01  3.6646252611266718e+01  3.6310312121006859e+01  3.5924336503662111e+01  3.5479772286109117e+01  3.4966271214027607e+01  3.4371233331569840e+01  3.3679220545984258e+01  3.2871206983723042e+01  3.1923631247229693e+01  3.0807226011398743e+01  2.9485639393967237e+01  2.7913966201769476e+01  2.6037545783496903e+01  2.3791877764979009e+01  2.1105411997635642e+01  1.7908299477656215e+01  1.4151215841295175e+01  9.8364526770252105e+00  5.0541281930533897e+00  0.0000000000000000e+00  0.0000000000000000e+00  4.2819431454771282e+00  8.3892601522006043e+00  1.2184835109147663e+01  1.5588468583986442e+01  1.8574508561248201e+01  2.1156694423308725e+01  2.3370965559265805e+01  2.5262155872933171e+01  2.6875768475170560e+01  2.8253774254162757e+01  2.9432960461778091e+01  3.0444670763231773e+01  3.1315202610300251e+01  3.2066452133269557e+01  3.2716599900477796e+01  3.3280744992796798e+01  3.3771454083890490e+01  3.4199220693466486e+01  3.4572842055731293e+01  3.4899725249183788e+01  3.5186134676321231e+01  3.5437391853182341e+01  3.5658036833084893e+01  3.5851958931343894e+01  3.6022502934655193e+01  3.6172555728870648e+01  3.6304617259150568e+01  3.6420858919873815e+01  3.6523171824663329e+01  3.6613206897147123e+01  3.6692408322525587e+01  3.6762041585405044e+01  3.6823217072014550e+01  3.6876910020077496e+01  3.6923977445717640e+01  3.6965172554847449e+01  3.7001157049542158e+01  3.7032511662529984e+01  3.7059745190932830e+01  3.7083302250499386e+01  3.7103569931241857e+01  3.7120883502623180e+01  3.7135531289682078e+01  3.7147758819491528e+01  3.7157772319147718e+01  3.7165741631298403e+01  3.7171802600417557e+01  3.7176058972105167e+01  3.7178583838225926e+01  3.7179420652342294e+01  3.7178583832359529e+01  3.7176058960315196e+01  3.7171802582589862e+01  3.7165741607262937e+01  3.7157772288679411e+01  3.7147758782312216e+01  3.7135531245462190e+01  3.7120883450984586e+01  3.7103569871760449e+01  3.7083302182708394e+01  3.7059745114326638e+01  3.7032511576568098e+01  3.7001156953653975e+01  3.6965172448436995e+01  3.6923977328168945e+01  3.6876909890760182e+01  3.6823216930289597e+01  3.6762041430630930e+01  3.6692408154064303e+01  3.6613206714370634e+01  3.6523171626959439e+01  3.6420858706652098e+01  3.6304617029847847e+01  3.6172555482956113e+01  3.6022502671634548e+01  3.5851958650762832e+01  3.5658036534531341e+01  3.5437391536287635e+01  3.5186134340759352e+01  3.4899724894669070e+01  3.4572841682014058e+01  3.4199220300326019e+01  3.3771453671125649e+01  3.3280744560213499e+01  3.2716599447873030e+01  3.2066451660411822e+01  3.1315202116905585e+01  3.0444670248935207e+01  2.9432959926100125e+01  2.8253773696470120e+01  2.6875767894631210e+01  2.5262155268465399e+01  2.3370964929482032e+01  2.1156693766454751e+01  1.8574507875139641e+01  1.5588467865942068e+01  1.2184834355915195e+01  8.3892593598640701e+00  4.2819423093319235e+00  0.0000000000000000e+00  0.0000000000000000e+00  3.6922218827917086e+00  7.2659660559349932e+00  1.0622838310000505e+01  1.3696805640656907e+01  1.6455988041146977e+01  1.8896685842651639e+01  2.1034348566986896e+01  2.2895089887886350e+01  2.4509352175134683e+01  2.5907872079461221e+01  2.7119458450355655e+01  2.8169983125155824e+01  2.9082095450497128e+01  2.9875325353658091e+01  3.0566368200032873e+01  3.1169433653814533e+01  3.1696596503336785e+01  3.2158120046180066e+01  3.2562740686783648e+01  3.2917911806380047e+01  3.3230009465494874e