<?xml version="1.0"?>
<VTKFile type="UnstructuredGrid"  version="0.1"  >
<UnstructuredGrid>
<Piece  NumberOfPoints="10201" NumberOfCells="20000">
<Points>
<DataArray  type="Float64"  NumberOfComponents="3"  format="ascii">0 0 0  0.01 0 0  0.02 0 0  0.03 0 0  0.04 0 0  0.05 0 0  0.06 0 0  0.07000000000000001 0 0  0.08 0 0  0.09 0 0  0.1 0 0  0.11 0 0  0.12 0 0  0.13 0 0  0.14 0 0  0.15 0 0  0.16 0 0  0.17 0 0  0.18 0 0  0.19 0 0  0.2 0 0  0.21 0 0  0.22 0 0  0.23 0 0  0.24 0 0  0.25 0 0  0.26 0 0  0.27 0 0  0.28 0 0  0.29 0 0  0.3 0 0  0.31 0 0  0.32 0 0  0.33 0 0  0.34 0 0  0.35 0 0  0.36 0 0  0.37 0 0  0.38 0 0  0.39 0 0  0.4 0 0  0.41 0 0  0.42 0 0  0.43 0 0  0.44 0 0  0.45 0 0  0.46 0 0  0.47 0 0  0.48 0 0  0.49 0 0  0.5 0 0  0.51 0 0  0.52 0 0  0.53 0 0  0.54 0 0  0.55 0 0  0.5600000000000001 0 0  0.57 0 0  0.58 0 0  0.59 0 0  0.6 0 0  0.61 0 0  0.62 0 0  0.63 0 0  0.64 0 0  0.65 0 0  0.66 0 0  0.67 0 0  0.68 0 0  0.6899999999999999 0 0  0.7 0 0  0.71 0 0  0.72 0 0  0.73 0 0  0.74 0 0  0.75 0 0  0.76 0 0  0.77 0 0  0.78 0 0  0.79 0 0  0.8 0 0  0.8100000000000001 0 0  0.82 0 0  0.83 0 0  0.84 0 0  0.85 0 0  0.86 0 0  0.87 0 0  0.88 0 0  0.89 0 0  0.9 0 0  0.91 0 0  0.92 0 0  0.93 0 0  0.9399999999999999 0 0  0.95 0 0  0.96 0 0  0.97 0 0  0.98 0 0  0.99 0 0  1 0 0  0 0.01 0  0.01 0.01 0  0.02 0.01 0  0.03 0.01 0  0.04 0.01 0  0.05 0.01 0  0.06 0.01 0  0.07000000000000001 0.01 0  0.08 0.01 0  0.09 0.01 0  0.1 0.01 0  0.11 0.01 0  0.12 0.01 0  0.13 0.01 0  0.14 0.01 0  0.15 0.01 0  0.16 0.01 0  0.17 0.01 0  0.18 0.01 0  0.19 0.01 0  0.2 0.01 0  0.21 0.01 0  0.22 0.01 0  0.23 0.01 0  0.24 0.01 0  0.25 0.01 0  0.26 0.01 0  0.27 0.01 0  0.28 0.01 0  0.29 0.01 0  0.3 0.01 0  0.31 0.01 0  0.32 0.01 0  0.33 0.01 0  0.34 0.01 0  0.35 0.01 0  0.36 0.01 0  0.37 0.01 0  0.38 0.01 0  0.39 0.01 0  0.4 0.01 0  0.41 0.01 0  0.42 0.01 0  0.43 0.01 0  0.44 0.01 0  0.45 0.01 0  0.46 0.01 0  0.47 0.01 0  0.48 0.01 0  0.49 0.01 0  0.5 0.01 0  0.51 0.01 0  0.52 0.01 0  0.53 0.01 0  0.54 0.01 0  0.55 0.01 0  0.5600000000000001 0.01 0  0.57 0.01 0  0.58 0.01 0  0.59 0.01 0  0.6 0.01 0  0.61 0.01 0  0.62 0.01 0  0.63 0.01 0  0.64 0.01 0  0.65 0.01 0  0.66 0.01 0  0.67 0.01 0  0.68 0.01 0  0.6899999999999999 0.01 0  0.7 0.01 0  0.71 0.01 0  0.72 0.01 0  0.73 0.01 0  0.74 0.01 0  0.75 0.01 0  0.76 0.01 0  0.77 0.01 0  0.78 0.01 0  0.79 0.01 0  0.8 0.01 0  0.8100000000000001 0.01 0  0.82 0.01 0  0.83 0.01 0  0.84 0.01 0  0.85 0.01 0  0.86 0.01 0  0.87 0.01 0  0.88 0.01 0  0.89 0.01 0  0.9 0.01 0  0.91 0.01 0  0.92 0.01 0  0.93 0.01 0  0.9399999999999999 0.01 0  0.95 0.01 0  0.96 0.01 0  0.97 0.01 0  0.98 0.01 0  0.99 0.01 0  1 0.01 0  0 0.02 0  0.01 0.02 0  0.02 0.02 0  0.03 0.02 0  0.04 0.02 0  0.05 0.02 0  0.06 0.02 0  0.07000000000000001 0.02 0  0.08 0.02 0  0.09 0.02 0  0.1 0.02 0  0.11 0.02 0  0.12 0.02 0  0.13 0.02 0  0.14 0.02 0  0.15 0.02 0  0.16 0.02 0  0.17 0.02 0  0.18 0.02 0  0.19 0.02 0  0.2 0.02 0  0.21 0.02 0  0.22 0.02 0  0.23 0.02 0  0.24 0.02 0  0.25 0.02 0  0.26 0.02 0  0.27 0.02 0  0.28 0.02 0  0.29 0.02 0  0.3 0.02 0  0.31 0.02 0  0.32 0.02 0  0.33 0.02 0  0.34 0.02 0  0.35 0.02 0  0.36 0.02 0  0.37 0.02 0  0.38 0.02 0  0.39 0.02 0  0.4 0.02 0  0.41 0.02 0  0.42 0.02 0  0.43 0.02 0  0.44 0.02 0  0.45 0.02 0  0.46 0.02 0  0.47 0.02 0  0.48 0.02 0  0.49 0.02 0  0.5 0.02 0  0.51 0.02 0  0.52 0.02 0  0.53 0.02 0  0.54 0.02 0  0.55 0.02 0  0.5600000000000001 0.02 0  0.57 0.02 0  0.58 0.02 0  0.59 0.02 0  0.6 0.02 0  0.61 0.02 0  0.62 0.02 0  0.63 0.02 0  0.64 0.02 0  0.65 0.02 0  0.66 0.02 0  0.67 0.02 0  0.68 0.02 0  0.6899999999999999 0.02 0  0.7 0.02 0  0.71 0.02 0  0.72 0.02 0  0.73 0.02 0  0.74 0.02 0  0.75 0.02 0  0.76 0.02 0  0.77 0.02 0  0.78 0.02 0  0.79 0.02 0  0.8 0.02 0  0.8100000000000001 0.02 0  0.82 0.02 0  0.83 0.02 0  0.84 0.02 0  0.85 0.02 0  0.86 0.02 0  0.87 0.02 0  0.88 0.02 0  0.89 0.02 0  0.9 0.02 0  0.91 0.02 0  0.92 0.02 0  0.93 0.02 0  0.9399999999999999 0.02 0  0.95 0.02 0  0.96 0.02 0  0.97 0.02 0  0.98 0.02 0  0.99 0.02 0  1 0.02 0  0 0.03 0  0.01 0.03 0  0.02 0.03 0  0.03 0.03 0  0.04 0.03 0  0.05 0.03 0  0.06 0.03 0  0.07000000000000001 0.03 0  0.08 0.03 0  0.09 0.03 0  0.1 0.03 0  0.11 0.03 0  0.12 0.03 0  0.13 0.03 0  0.14 0.03 0  0.15 0.03 0  0.16 0.03 0  0.17 0.03 0  0.18 0.03 0  0.19 0.03 0  0.2 0.03 0  0.21 0.03 0  0.22 0.03 0  0.23 0.03 0  0.24 0.03 0  0.25 0.03 0  0.26 0.03 0  0.27 0.03 0  0.28 0.03 0  0.29 0.03 0  0.3 0.03 0  0.31 0.03 0  0.32 0.03 0  0.33 0.03 0  0.34 0.03 0  0.35 0.03 0  0.36 0.03 0  0.37 0.03 0  0.38 0.03 0  0.39 0.03 0  0.4 0.03 0  0.41 0.03 0  0.42 0.03 0  0.43 0.03 0  0.44 0.03 0  0.45 0.03 0  0.46 0.03 0  0.47 0.03 0  0.48 0.03 0  0.49 0.03 0  0.5 0.03 0  0.51 0.03 0  0.52 0.03 0  0.53 0.03 0  0.54 0.03 0  0.55 0.03 0  0.5600000000000001 0.03 0  0.57 0.03 0  0.58 0.03 0  0.59 0.03 0  0.6 0.03 0  0.61 0.03 0  0.62 0.03 0  0.63 0.03 0  0.64 0.03 0  0.65 0.03 0  0.66 0.03 0  0.67 0.03 0  0.68 0.03 0  0.6899999999999999 0.03 0  0.7 0.03 0  0.71 0.03 0  0.72 0.03 0  0.73 0.03 0  0.74 0.03 0  0.75 0.03 0  0.76 0.03 0  0.77 0.03 0  0.78 0.03 0  0.79 0.03 0  0.8 0.03 0  0.8100000000000001 0.03 0  0.82 0.03 0  0.83 0.03 0  0.84 0.03 0  0.85 0.03 0  0.86 0.03 0  0.87 0.03 0  0.88 0.03 0  0.89 0.03 0  0.9 0.03 0  0.91 0.03 0  0.92 0.03 0  0.93 0.03 0  0.9399999999999999 0.03 0  0.95 0.03 0  0.96 0.03 0  0.97 0.03 0  0.98 0.03 0  0.99 0.03 0  1 0.03 0  0 0.04 0  0.01 0.04 0  0.02 0.04 0  0.03 0.04 0  0.04 0.04 0  0.05 0.04 0  0.06 0.04 0  0.07000000000000001 0.04 0  0.08 0.04 0  0.09 0.04 0  0.1 0.04 0  0.11 0.04 0  0.12 0.04 0  0.13 0.04 0  0.14 0.04 0  0.15 0.04 0  0.16 0.04 0  0.17 0.04 0  0.18 0.04 0  0.19 0.04 0  0.2 0.04 0  0.21 0.04 0  0.22 0.04 0  0.23 0.04 0  0.24 0.04 0  0.25 0.04 0  0.26 0.04 0  0.27 0.04 0  0.28 0.04 0  0.29 0.04 0  0.3 0.04 0  0.31 0.04 0  0.32 0.04 0  0.33 0.04 0  0.34 0.04 0  0.35 0.04 0  0.36 0.04 0  0.37 0.04 0  0.38 0.04 0  0.39 0.04 0  0.4 0.04 0  0.41 0.04 0  0.42 0.04 0  0.43 0.04 0  0.44 0.04 0  0.45 0.04 0  0.46 0.04 0  0.47 0.04 0  0.48 0.04 0  0.49 0.04 0  0.5 0.04 0  0.51 0.04 0  0.52 0.04 0  0.53 0.04 0  0.54 0.04 0  0.55 0.04 0  0.5600000000000001 0.04 0  0.57 0.04 0  0.58 0.04 0  0.59 0.04 0  0.6 0.04 0  0.61 0.04 0  0.62 0.04 0  0.63 0.04 0  0.64 0.04 0  0.65 0.04 0  0.66 0.04 0  0.67 0.04 0  0.68 0.04 0  0.6899999999999999 0.04 0  0.7 0.04 0  0.71 0.04 0  0.72 0.04 0  0.73 0.04 0  0.74 0.04 0  0.75 0.04 0  0.76 0.04 0  0.77 0.04 0  0.78 0.04 0  0.79 0.04 0  0.8 0.04 0  0.8100000000000001 0.04 0  0.82 0.04 0  0.83 0.04 0  0.84 0.04 0  0.85 0.04 0  0.86 0.04 0  0.87 0.04 0  0.88 0.04 0  0.89 0.04 0  0.9 0.04 0  0.91 0.04 0  0.92 0.04 0  0.93 0.04 0  0.9399999999999999 0.04 0  0.95 0.04 0  0.96 0.04 0  0.97 0.04 0  0.98 0.04 0  0.99 0.04 0  1 0.04 0  0 0.05 0  0.01 0.05 0  0.02 0.05 0  0.03 0.05 0  0.04 0.05 0  0.05 0.05 0  0.06 0.05 0  0.07000000000000001 0.05 0  0.08 0.05 0  0.09 0.05 0  0.1 0.05 0  0.11 0.05 0  0.12 0.05 0  0.13 0.05 0  0.14 0.05 0  0.15 0.05 0  0.16 0.05 0  0.17 0.05 0  0.18 0.05 0  0.19 0.05 0  0.2 0.05 0  0.21 0.05 0  0.22 0.05 0  0.23 0.05 0  0.24 0.05 0  0.25 0.05 0  0.26 0.05 0  0.27 0.05 0  0.28 0.05 0  0.29 0.05 0  0.3 0.05 0  0.31 0.05 0  0.32 0.05 0  0.33 0.05 0  0.34 0.05 0  0.35 0.05 0  0.36 0.05 0  0.37 0.05 0  0.38 0.05 0  0.39 0.05 0  0.4 0.05 0  0.41 0.05 0  0.42 0.05 0  0.43 0.05 0  0.44 0.05 0  0.45 0.05 0  0.46 0.05 0  0.47 0.05 0  0.48 0.05 0  0.49 0.05 0  0.5 0.05 0  0.51 0.05 0  0.52 0.05 0  0.53 0.05 0  0.54 0.05 0  0.55 0.05 0  0.5600000000000001 0.05 0  0.57 0.05 0  0.58 0.05 0  0.59 0.05 0  0.6 0.05 0  0.61 0.05 0  0.62 0.05 0  0.63 0.05 0  0.64 0.05 0  0.65 0.05 0  0.66 0.05 0  0.67 0.05 0  0.68 0.05 0  0.6899999999999999 0.05 0  0.7 0.05 0  0.71 0.05 0  0.72 0.05 0  0.73 0.05 0  0.74 0.05 0  0.75 0.05 0  0.76 0.05 0  0.77 0.05 0  0.78 0.05 0  0.79 0.05 0  0.8 0.05 0  0.8100000000000001 0.05 0  0.82 0.05 0  0.83 0.05 0  0.84 0.05 0  0.85 0.05 0  0.86 0.05 0  0.87 0.05 0  0.88 0.05 0  0.89 0.05 0  0.9 0.05 0  0.91 0.05 0  0.92 0.05 0  0.93 0.05 0  0.9399999999999999 0.05 0  0.95 0.05 0  0.96 0.05 0  0.97 0.05 0  0.98 0.05 0  0.99 0.05 0  1 0.05 0  0 0.06 0  0.01 0.06 0  0.02 0.06 0  0.03 0.06 0  0.04 0.06 0  0.05 0.06 0  0.06 0.06 0  0.07000000000000001 0.06 0  0.08 0.06 0  0.09 0.06 0  0.1 0.06 0  0.11 0.06 0  0.12 0.06 0  0.13 0.06 0  0.14 0.06 0  0.15 0.06 0  0.16 0.06 0  0.17 0.06 0  0.18 0.06 0  0.19 0.06 0  0.2 0.06 0  0.21 0.06 0  0.22 0.06 0  0.23 0.06 0  0.24 0.06 0  0.25 0.06 0  0.26 0.06 0  0.27 0.06 0  0.28 0.06 0  0.29 0.06 0  0.3 0.06 0  0.31 0.06 0  0.32 0.06 0  0.33 0.06 0  0.34 0.06 0  0.35 0.06 0  0.36 0.06 0  0.37 0.06 0  0.38 0.06 0  0.39 0.06 0  0.4 0.06 0  0.41 0.06 0  0.42 0.06 0  0.43 0.06 0  0.44 0.06 0  0.45 0.06 0  0.46 0.06 0  0.47 0.06 0  0.48 0.06 0  0.49 0.06 0  0.5 0.06 0  0.51 0.06 0  0.52 0.06 0  0.53 0.06 0  0.54 0.06 0  0.55 0.06 0  0.5600000000000001 0.06 0  0.57 0.06 0  0.58 0.06 0  0.59 0.06 0  0.6 0.06 0  0.61 0.06 0  0.62 0.06 0  0.63 0.06 0  0.64 0.06 0  0.65 0.06 0  0.66 0.06 0  0.67 0.06 0  0.68 0.06 0  0.6899999999999999 0.06 0  0.7 0.06 0  0.71 0.06 0  0.72 0.06 0  0.73 0.06 0  0.74 0.06 0  0.75 0.06 0  0.76 0.06 0  0.77 0.06 0  0.78 0.06 0  0.79 0.06 0  0.8 0.06 0  0.8100000000000001 0.06 0  0.82 0.06 0  0.83 0.06 0  0.84 0.06 0  0.85 0.06 0  0.86 0.06 0  0.87 0.06 0  0.88 0.06 0  0.89 0.06 0  0.9 0.06 0  0.91 0.06 0  0.92 0.06 0  0.93 0.06 0  0.9399999999999999 0.06 0  0.95 0.06 0  0.96 0.06 0  0.97 0.06 0  0.98 0.06 0  0.99 0.06 0  1 0.06 0  0 0.07000000000000001 0  0.01 0.07000000000000001 0  0.02 0.07000000000000001 0  0.03 0.07000000000000001 0  0.04 0.07000000000000001 0  0.05 0.07000000000000001 0  0.06 0.07000000000000001 0  0.07000000000000001 0.07000000000000001 0  0.08 0.07000000000000001 0  0.09 0.07000000000000001 0  0.1 0.07000000000000001 0  0.11 0.07000000000000001 0  0.12 0.07000000000000001 0  0.13 0.07000000000000001 0  0.14 0.07000000000000001 0  0.15 0.07000000000000001 0  0.16 0.07000000000000001 0  0.17 0.0700
[...]
<PointData  Scalars="f_17"> 
<DataArray  type="Float64"  Name="f_17"  format="ascii">0.0000000000000000e+00  5.0000000000000000e+01  5.0000000000000000e+01  5.0000000000000000e+01  5.0000000000000000e+01  5.0000000000000000e+01  5.0000000000000000e+01  5.0000000000000000e+01  5.0000000000000000e+01  5.0000000000000000e+01  5.0000000000000000e+01  5.0000000000000000e+01  5.0000000000000000e+01  5.0000000000000000e+01  5.0000000000000000e+01  5.0000000000000000e+01  5.0000000000000000e+01  5.0000000000000000e+01  5.0000000000000000e+01  5.0000000000000000e+01  5.0000000000000000e+01  5.0000000000000000e+01  5.0000000000000000e+01  5.0000000000000000e+01  5.0000000000000000e+01  5.0000000000000000e+01  5.0000000000000000e+01  5.0000000000000000e+01  5.0000000000000000e+01  5.0000000000000000e+01  5.0000000000000000e+01  5.0000000000000000e+01  5.0000000000000000e+01  5.0000000000000000e+01  5.0000000000000000e+01  5.0000000000000000e+01  5.0000000000000000e+01  5.0000000000000000e+01  5.0000000000000000e+01  5.0000000000000000e+01  5.0000000000000000e+01  5.0000000000000000e+01  5.0000000000000000e+01  5.0000000000000000e+01  5.0000000000000000e+01  5.0000000000000000e+01  5.0000000000000000e+01  5.0000000000000000e+01  5.0000000000000000e+01  5.0000000000000000e+01  5.0000000000000000e+01  5.0000000000000000e+01  5.0000000000000000e+01  5.0000000000000000e+01  5.0000000000000000e+01  5.0000000000000000e+01  5.0000000000000000e+01  5.0000000000000000e+01  5.0000000000000000e+01  5.0000000000000000e+01  5.0000000000000000e+01  5.0000000000000000e+01  5.0000000000000000e+01  5.0000000000000000e+01  5.0000000000000000e+01  5.0000000000000000e+01  5.0000000000000000e+01  5.0000000000000000e+01  5.0000000000000000e+01  5.0000000000000000e+01  5.0000000000000000e+01  5.0000000000000000e+01  5.0000000000000000e+01  5.0000000000000000e+01  5.0000000000000000e+01  5.0000000000000000e+01  5.0000000000000000e+01  5.0000000000000000e+01  5.0000000000000000e+01  5.0000000000000000e+01  5.0000000000000000e+01  5.0000000000000000e+01  5.0000000000000000e+01  5.0000000000000000e+01  5.0000000000000000e+01  5.0000000000000000e+01  5.0000000000000000e+01  5.0000000000000000e+01  5.0000000000000000e+01  5.0000000000000000e+01  5.0000000000000000e+01  5.0000000000000000e+01  5.0000000000000000e+01  5.0000000000000000e+01  5.0000000000000000e+01  5.0000000000000000e+01  5.0000000000000000e+01  5.0000000000000000e+01  5.0000000000000000e+01  5.0000000000000000e+01  0.0000000000000000e+00  0.0000000000000000e+00  2.4949045519093797e+01  3.5151810485229433e+01  3.9607823022306334e+01  4.1999599626868559e+01  4.3463767474645039e+01  4.4440386784577761e+01  4.5131218195885161e+01  4.5640882859105112e+01  4.6028810094741786e+01  4.6331190205573364e+01  4.6571298927573189e+01  4.6764778573686321e+01  4.6922527720110736e+01  4.7052371987105829e+01  4.7160075466000869e+01  4.7249977251536620e+01  4.7325405600784542e+01  4.7388955299775212e+01  4.7442678179477184e+01  4.7488216939052705e+01  4.7526901043749696e+01  4.7559816691859027e+01  4.7587858700922276e+01  4.7611769561774494e+01  4.7632169237727709e+01  4.7649578189953779e+01  4.7664435377317226e+01  4.7677112480517444e+01  4.7687925256049411e+01  4.7697142684098196e+01  4.7704994402995872e+01  4.7711676799537820e+01  4.7717358034743626e+01  4.7722182218698670e+01  4.7726272899150786e+01  4.7729735991853261e+01  4.7732662252911389e+01  4.7735129372255862e+01  4.7737203751116148e+01  4.7738942013782363e+01  4.7740392294107238e+01  4.7741595329449858e+01  4.7742585388597028e+01  4.7743391055246839e+01  4.7744035884612423e+01  4.7744538947392172e+01  4.7744915272587235e+01  4.7745176198299163e+01  4.7745329637606154e+01  4.7745380264821719e+01  4.7745329625810129e+01  4.7745176174520822e+01  4.7744915236454048e+01  4.7744538898345134e+01  4.7744035821905783e+01  4.7743390977948025e+01  4.7742585295586920e+01  4.7741595219423850e+01  4.7740392165576047e+01  4.7738941865074494e+01  4.7737203580381539e+01  4.7735129177470782e+01  4.7732662031884828e+01  4.7729735742235768e+01  4.7726272618445385e+01  4.7722181904273988e+01  4.7717357683850288e+01  4.7711676409326998e+01  4.7704993970541459e+01  4.7697142206421660e+01  4.7687924730147479e+01  4.7677111903393083e+01  4.7664434746012979e+01  4.7649577501587729e+01  4.7632168489531068e+01  4.7611768751131187e+01  4.7587857825408953e+01  4.7559815749285988e+01  4.7526900032200196e+01  4.7488215856921641e+01  4.7442677025507059e+01  4.7388954073088748e+01  4.7325404300912339e+01  4.7249975878439741e+01  4.7160074020085837e+01  4.7052370469231811e+01  4.6922526131586871e+01  4.6764776916257546e+01  4.6571297203392866e+01  4.6331188417159417e+01  4.6028808244911687e+01  4.5640880950882021e+01  4.5131216232358959e+01  4.4440384768683195e+01  4.3463765408760125e+01  4.1999597511931448e+01  3.9607820855329592e+01  3.5151808250099819e+01  2.4949043142056013e+01  0.0000000000000000e+00  0.0000000000000000e+00  1.4644701451697843e+01  2.4796842614952702e+01  3.0980637704035896e+01  3.4837374671304012e+01  3.7383396696057169e+01  3.9154273530957774e+01  4.0439030132038951e+01  4.1402478569754628e+01  4.2144003483769879e+01  4.2726589957179122e+01  4.3191894410958227e+01  4.3568486377132167e+01  4.3876576862039052e+01  4.4130849163477933e+01  4.4342218410375544e+01  4.4518961875654597e+01  4.4667466482222615e+01  4.4792736036010666e+01  4.4898743402052304e+01  4.4988680102939611e+01  4.5065136529584137e+01  4.5130234263736504e+01  4.5185724743725110e+01  4.5233063880589242e+01  4.5273469226928604e+01  4.5307964310326916e+01  4.5337413401265053e+01  4.5362549065977525e+01  4.5383994215280701e+01  4.5402279909583662e+01  4.5417859858400320e+01  4.5431122320136964e+01  4.5442399938089039e+01  4.5451977923279991e+01  4.5460100901448257e+01  4.5466978671354411e+01  4.5472791068426034e+01  4.5477692087140035e+01  4.5481813384258452e+01  4.5485267260738404e+01  4.5488149201125616e+01  4.5490540034224352e+01  4.5492507766877218e+01  4.5494109133060455e+01  4.5495390892667182e+01  4.5496390907890870e+01  4.5497139019722013e+01  4.5497657742479326e+01  4.5497962790313771e+01  4.5498063446104013e+01  4.5497962779963935e+01  4.5497657721611205e+01  4.5497138987998689e+01  4.5496390864806770e+01  4.5495390837547646e+01  4.5494109065061316e+01  4.5492507684985249e+01  4.5490539937257729e+01  4.5488149087734442e+01  4.5485267129406964e+01  4.5481813233308102e+01  4.5477691914733484e+01  4.5472790872572894e+01  4.5466978449919232e+01  4.5460100652160037e+01  4.5451977643744399e+01  4.5442399625802757e+01  4.5431121972504869e+01  4.5417859472755353e+01  4.5402279483209448e+01  4.5383993745436626e+01  4.5362548549926494e+01  4.5337412836303642e+01  4.5307963693817527e+01  4.5273468556332759e+01  4.5233063153502329e+01  4.5185723957911151e+01  4.5130233417163090e+01  4.5065135620455166e+01  4.4988679129726350e+01  4.4898742363521166e+01  4.4792734931246088e+01  4.4667465310644459e+01  4.4518960637028158e+01  4.4342217104813017e+01  4.4130847791429424e+01  4.3876575424270882e+01  4.3568484874690633e+01  4.3191892845115127e+01  4.2726588329354790e+01  4.2144001795425901e+01  4.1402476822244871e+01  4.0439028326397292e+01  3.9154271667577660e+01  3.7383394774174320e+01  3.4837372688094227e+01  3.0980635653035517e+01  2.4796840484478029e+01  1.4644699237943026e+01  0.0000000000000000e+00  0.0000000000000000e+00  1.0087771347276425e+01  1.8411541550401445e+01  2.4545369881858992e+01  2.8912012161249333e+01  3.2043688029760077e+01  3.4339098053474551e+01  3.6062502264334512e+01  3.7385396611590039e+01  3.8420455198241150e+01  3.9243451389892975e+01  3.9906679947491831e+01  4.0447154989121039e+01  4.0891695777290387e+01  4.1260151874256515e+01  4.1567497245058924e+01  4.1825221944308069e+01  4.2042277613497141e+01  4.2225733181273569e+01  4.2381238318784504e+01  4.2513356811609981e+01  4.2625810273874642e+01  4.2721659003797413e+01  4.2803438067880123e+01  4.2873261026214912e+01  4.2932899949892501e+01  4.2983847847066812e+01  4.3027367880307025e+01  4.3064532554598742e+01  4.3096255209192073e+01  4.3123315544051181e+01  4.3146380477769249e+01  4.3166021317941862e+01  4.3182727992714419e+01  4.3196920919800021e+01  4.3208960960137439e+01  4.3219157805837405e+01  4.3227777077822878e+01  4.3235046351603721e+01  4.3241160285582723e+01  4.3246284991975301e+01  4.3250561763473030e+01  4.3254110247441204e+01  4.3257031142385962e+01  4.3259408477661957e+01  4.3261311526161670e+01  4.3262796390443221e+01  4.3263907294970885e+01  4.3264677610508180e+01  4.3265130630939446e+01  4.3265280117684263e+01  4.3265130622222991e+01  4.3264677592924023e+01  4.3263907268216407e+01  4.3262796354063937e+01  4.3261311479550670e+01  4.3259408420059373e+01  4.3257031072878540e+01  4.3254110164962391e+01  4.3250561666802994e+01  4.3246284879742383e+01  4.3241160156265302e+01  4.3235046203533443e+01  4.3227776909189586e+01  4.3219157614695256e+01  4.3208960744413595e+01  4.3196920677304867e+01  4.3182727721154571e+01  4.3166021014935339e+01  4.3146380140863251e+01  4.3123315170742707e+01  4.3096254796950419e+01  4.3064532100890759e+01  4.3027367382624455e+01  4.2983847302955091e+01  4.2932899356981011e+01  4.2873260382247800e+01  4.2803437370746963e+01  4.2721658251563227e+01  4.2625809464807929e+01  4.2513355944207689e+01  4.2381237391793356e+01  4.2225732193705376e+01  4.2042276564637632e+01  4.1825220833717111e+01  4.1567496072560751e+01  4.1260150639917249e+01  4.0891694481381322e+01  4.0447153632064293e+01  3.9906678529784678e+01  3.9243449912005559e+01  3.8420453660480717e+01  3.7385395013919513e+01  3.6062500606129035e+01  3.4339096333189715e+01  3.2043686244480860e+01  2.8912010306124635e+01  2.4545367949661923e+01  1.8411539532364475e+01  1.0087769236319987e+01  0.0000000000000000e+00  0.0000000000000000e+00  7.5960611585143445e+00  1.4355263288059810e+01  1.9880226979546396e+01  2.4197871848502810e+01  2.7522177978436257e+01  3.0086623839851967e+01  3.2083743275102108e+01  3.3657838628726601e+01  3.4913675582196760e+01  3.5926943700514308e+01  3.6752716378407882e+01  3.7431563747845644e+01  3.7993802377189411e+01  3.8462420848573004e+01  3.8855100147958971e+01  3.9185621934388308e+01  3.9464862092417974e+01  3.9701501043818702e+01  3.9902538473408420e+01  4.0073671324620570e+01  4.0219574985825972e+01  4.0344115060211557e+01  4.0450508744159684e+01  4.0541449188507436e+01  4.0619202356926628e+01  4.0685683227531463e+01  4.0742516318135813e+01  4.0791084196274689e+01  4.0832566692029999e+01  4.0867972850588352e+01  4.0898167164695280e+01  4.0923891261477280e+01  4.0945781946521620e+01  4.0964386304721685e+01  4.0980174403869107e+01  4.0993550030200311e+01  4.1004859795629287e+01  4.1014400887340244e+01  4.1022427676735909e+01  4.1029157362704161e+01  4.1034774791001958e+01  4.1039436565179614e+01  4.1043274543302282e+01  4.1046398797576231e+01  4.1048900099937164e+01  4.1050851985004186e+01  4.1052312431992291e+01  4.1053325198787547e+01  4.1053920834075448e+01  4.1054117386907059e+01  4.1053920827160589e+01  4.1053325184822988e+01  4.1052312410707991e+01  4.1050851955994091e+01  4.1048900062658454e+01  4.1046398751348171e+01  4.1043274487305126e+01  4.1039436498453682e+01  4.1034774712447131e+01  4.1029157271079988e+01  4.1022427570662344e+01  4.1014400765299577e+01  4.1004859655969604e+01  4.0993549871140374e+01  4.0980174223504953e+01  4.0964386101035601e+01  4.0945781717392826e+01  4.0923891004695712e+01  4.0898166877977211e+01  4.0867972531594923e+01  4.0832566338387537e+01  4.0791083805598412e+01  4.0742515888054079e+01  4.0685682755712811e+01  4.0619201841107277e+01  4.0541448626519553e+01  4.0450508133959204e+01  4.0344114399904875e+01  4.0219574273694562e+01  4.0073670559141988e+01  3.9902537653272901e+01  3.9701500167939393e+01  3.9464861159933427e+01  3.9185620944655852e+01  3.8855099100536357e+01  3.8462419743186466e+01  3.7993801213685551e+01  3.7431562526124466e+01  3.6752715098332452e+01  3.5926942361792968e+01  3.4913674184231354e+01  3.3657837170419256e+01  3.2083741754610209e+01  3.0086622254284858e+01  2.7522176323497984e+01  2.4197870118134748e+01  1.9880225165727747e+01  1.4355261380946956e+01  7.5960591462815383e+00  0.0000000000000000e+00  0.0000000000000000e+00  6.0332564864412772e+00  1.1612289183432482e+01  1.6453923576680474e+01  2.0482214476780779e+01  2.3758785903536154e+01  2.6400737047949612e+01  2.8530255606261836e+01  3.0253786481529144e+01  3.1657272586866526e+01  3.2807858586800087e+01  3.3757378281181573e+01  3.4545798955242724e+01  3.5204076489319256e+01  3.5756364409813884e+01  3.6221673287906938e+01  3.6615103258438658e+01  3.6948757789857154e+01  3.7232423384926292e+01  3.7474078301991405e+01  3.7680276268843329e+01  3.7856438398643213e+01  3.8007077264615802e+01  3.8135970462701579e+01  3.8246296261418628e+01  3.8340740558551580e+01  3.8421581939834205e+01  3.8490759885752460e+01  3.8549929902493787e+01  3.8600508424230554e+01  3.8643709649704071e+01  3.8680575968368245e+01  3.8712003251897166e+01  3.8738762001265407e+01  3.8761515123173886e+01  3.8780832944475776e+01  3.8797205946463514e+01  3.8811055602886370e+01  3.8822743629347990e+01  3.8832579892061425e+01  3.8840829176905608e+01  3.8847716982390885e+01  3.8853434470271189e+01  3.8858142683443219e+01  3.8861976121140920e+01  3.8865045745270464e+01  3.8867441478253333e+01  3.8869234241349666e+01  3.8870477572639132e+01  3.8871208855265131e+01  3.8871450178888509e+01  3.8871208850299986e+01  3.8870477562589400e+01  3.8869234225975966e+01  3.8867441457195298e+01  3.8865045718045202e+01  3.8861976087141350e+01  3.8858142641935935e+01  3.8853434420394748e+01  3.8847716923153882e+01  3.8840829107185435e+01  3.8832579810603683e+01  3.8822743534766893e+01  3.8811055493666288e+01  3.8797205820962134e+01  3.8780832800929041e+01  3.8761514959702843e+01  3.8738761815885354e+01  3.8712003042529133e+01  3.8680575732853036e+01  3.8643709385818880e+01  3.8600508129707819e+01  3.8549929575042626e+01  3.8490759523081849e+01  3.8421581539678222e+01  3.8340740118695400e+01  3.8246295779725223e+01  3.8135969937138071e+01  3.8007076693278592e+01  3.7856437779780464e+01  3.7680275600874232e+01  3.7474077583520000e+01  3.7232422614748963e+01  3.6948756966961732e+01  3.6615102381993381e+01  3.6221672357237111e+01  3.5756363424364203e+01  3.5204075448598928e+01  3.4545797858750788e+01  3.3757377128309066e+01  3.2807857376704852e+01  3.1657271318316845e+01  3.0253785152711032e+01  2.8530254214547075e+01  2.6400735589624936e+01  2.3758784373505474e+01  2.0482212868271191e+01  1.6453921880986528e+01  1.1612287389638494e+01  6.0332545807768314e+00  0.0000000000000000e+00  0.0000000000000000e+00  4.9595971977100080e+00  9.6476486624874980e+00  1.3868655397674406e+01  1.7532752028970794e+01  2.0637893345502988e+01  2.3233641626237588e+01  2.5390073443309049e+01  2.7178954429313645e+01  2.8664986790414098e+01  2.9903017979081373e+01  3.0938123784431930e+01  3.1806809521088098e+01  3.2538478048061656e+01  3.3156807890451475e+01  3.3680923361449516e+01  3.4126342245984809e+01  3.4505725599019094e+01  3.4829464538050338e+01  3.5106137709179869e+01  3.5342868070672836e+01  3.5545601987845053e+01  3.5719328565442360e+01  3.5868252985195809e+01  3.5995934348489058e+01  3.6105396013600100e+01  3.6199214510575722e+01  3.6279591676759722e+01  3.6348413569816664e+01  3.6407298895026713e+01  3.6457639062925331e+01  3.6500631521915359e+01  3.6537307650925399e+01  3.6568556221733758e+01  3.6595143228551620e+01  3.6617728718451708e+01  3.6636881128728270e+01  3.6653089537638522e+01  3.6666774156698253e+01  3.6678295330857971e+01  3.6687961263728965e+01  3.6696034645698347e+01  3.6702738331077391e+01  3.6708260184676092e+01  3.6712757197078915e+01  3.6716358950392902e+01  3.6719170501555652e+01  3.6721274737795603e+01  3.6722734248037241e+01  3.6723592744537726e+01  3.6723876060508978e+01  3.6723592741649199e+01  3.6722734242155248e+01  3.6721274728709503e+01  3.6719170488947618e+01  3.6716358933835771e+01  3.6712757176033556e+01  3.6708260158488336e+01  3.6702738298974992e+01  3.6696034606787649e+01  3.6687961216992015e+01  3.6678295275150205e+01  3.6666774090747168e+01  3.6653089460043205e+01  3.6636881037960578e+01  3.6617728612859203e+01  3.6595143106362436e+01  3.6568556081063804e+01  3.6537307489788020e+01  3.6500631338233489e+01  3.6457638854546722e+01  3.6407298659741343e+01  3.6348413305376823e+01  3.6279591380902446e+01  3.6199214181047026e+01  3.6105395648180625e+01  3.5995933945020269e+01  3.5868252541606132e+01  3.5719328079772104e+01  3.5545601458268990e+01  3.5342867495519037e+01  3.5106137086943463e+01  3.4829463867400300e+01  3.4505724878796691e+01  3.4126341475191133e+01  3.3680922539220688e+01  3.3156807016018668e+01  3.2538477120693997e+01  3.1806808540015584e+01  3.0938122748745574e+01  2.9903016887607937e+01  2.8664985641562460e+01  2.7178953220890669e+01  2.5390072172304539e+01  2.3233640288581135e+01  2.0637891935800369e+01  1.7532750540230094e+01  1.3868653821017704e+01  9.6476469867991437e+00  4.9595954091138106e+00  0.0000000000000000e+00  0.0000000000000000e+00  4.1736072684616099e+00  8.1728850563034197e+00  1.1861012492397128e+01  1.5158079746327116e+01  1.8038717013344414e+01  2.0516936198924018e+01  2.2628937370196237e+01  2.4419801274766591e+01  2.5935262238026919e+01  2.7217505154574933e+01  2.8303512729630040e+01  2.9224804430926500e+01  3.0007833019941081e+01  3.0674628861579780e+01  3.1243485360543307e+01  3.1729592966686408e+01  3.2145588431080682e+01  3.2502014467144114e+01  3.2807697242915950e+01  3.3070053331701317e+01  3.3295338188508957e+01  3.3488847089379213e+01  3.3655077834020069e+01  3.3797862854046315e+01  3.3920476885995861e+01  3.4025725118818372e+01  3.4116015706720169e+01  3.4193419722969644e+01  3.4259720984902785e+01  3.4316457672557405e+01  3.4364957264940607e+01  3.4406366005583045e+01  3.4441673864014405e+01  3.4471735767281565e+01  3.4497289724016888e+01  3.4518972343810063e+01  3.4537332159723064e+01  3.4552841086263300e+01  3.4565904284769978e+01  3.4576868659679768e+01  3.4586030169963166e+01  3.4593640108159377e+01  3.4599910473323980e+01  3.4605018542607226e+01  3.4609110728136777e+01  3.4612305790621065e+01  3.4614697468008217e+01  3.4616356566148006e+01  3.4617332548312866e+01  3.4617654651321423e+01  3.4617332547606125e+01  3.4616356564643112e+01  3.4614697465521260e+01  3.4612305786873776e+01  3.4609110722753449e+01  3.4605018535111100e+01  3.4599910463133099e+01  3.4593640094581886e+01  3.4586030152192507e+01  3.4576868636789925e+01  3.4565904255711203e+01  3.4552841049858621e+01  3.4537332114665872e+01  3.4518972288663022e+01  3.4497289657212718e+01  3.4471735687125872e+01  3.4441673768690798e+01  3.4406365893161137e+01  3.4364957133386504e+01  3.4316457519747509e+01  3.4259720808640225e+01  3.4193419521003641e+01  3.4116015476768055e+01  3.4025724858589975e+01  3.3920476593219227e+01  3.3797862526494811e+01  3.3655077469539542e+01  3.3488846685914275e+01  3.3295337744126996e+01  3.3070052844613137e+01  3.2807696711491346e+01  3.2502013889920434e+01  3.2145587806762933e+01  3.1729592294136491e+01  3.1243484638756733e+01  3.0674628089647261e+01  3.0007832196992922e+01  2.9224803556057587e+01  2.8303511801803186e+01  2.7217504172500519e+01  2.5935261200017340e+01  2.4419800178564739e+01  2.2628936212779031e+01  2.0516934976283331e+01  1.8038715720250387e+01  1.5158078376076700e+01  1.1861011036544015e+01  8.1728835043547097e+00  4.1736056075228491e+00  0.0000000000000000e+00  0.0000000000000000e+00  3.5709321735842328e+00  7.0237186616580169e+00  1.0260295264473783e+01  1.3214953010352829e+01  1.5856127660707189e+01  1.8180424482559779e+01  2.0203584688689244e+01  2.1951998174391822e+01  2.3456366054058563e+01  2.4747664480076580e+01  2.5854921056072254e+01  2.6804204397672986e+01  2.7618337711517196e+01  2.8317001214470501e+01  2.8917016628584769e+01  2.9432695963285266e+01  2.9876192536055473e+01  3.0257824812384655e+01  3.0586361699714491e+01  3.0869267334086604e+01  3.1112907896117306e