<?xml version="1.0"?>
<VTKFile type="UnstructuredGrid"  version="0.1"  >
<UnstructuredGrid>
<Piece  NumberOfPoints="10201" NumberOfCells="20000">
<Points>
<DataArray  type="Float64"  NumberOfComponents="3"  format="ascii">0 0 0  0.01 0 0  0.02 0 0  0.03 0 0  0.04 0 0  0.05 0 0  0.06 0 0  0.07000000000000001 0 0  0.08 0 0  0.09 0 0  0.1 0 0  0.11 0 0  0.12 0 0  0.13 0 0  0.14 0 0  0.15 0 0  0.16 0 0  0.17 0 0  0.18 0 0  0.19 0 0  0.2 0 0  0.21 0 0  0.22 0 0  0.23 0 0  0.24 0 0  0.25 0 0  0.26 0 0  0.27 0 0  0.28 0 0  0.29 0 0  0.3 0 0  0.31 0 0  0.32 0 0  0.33 0 0  0.34 0 0  0.35 0 0  0.36 0 0  0.37 0 0  0.38 0 0  0.39 0 0  0.4 0 0  0.41 0 0  0.42 0 0  0.43 0 0  0.44 0 0  0.45 0 0  0.46 0 0  0.47 0 0  0.48 0 0  0.49 0 0  0.5 0 0  0.51 0 0  0.52 0 0  0.53 0 0  0.54 0 0  0.55 0 0  0.5600000000000001 0 0  0.57 0 0  0.58 0 0  0.59 0 0  0.6 0 0  0.61 0 0  0.62 0 0  0.63 0 0  0.64 0 0  0.65 0 0  0.66 0 0  0.67 0 0  0.68 0 0  0.6899999999999999 0 0  0.7 0 0  0.71 0 0  0.72 0 0  0.73 0 0  0.74 0 0  0.75 0 0  0.76 0 0  0.77 0 0  0.78 0 0  0.79 0 0  0.8 0 0  0.8100000000000001 0 0  0.82 0 0  0.83 0 0  0.84 0 0  0.85 0 0  0.86 0 0  0.87 0 0  0.88 0 0  0.89 0 0  0.9 0 0  0.91 0 0  0.92 0 0  0.93 0 0  0.9399999999999999 0 0  0.95 0 0  0.96 0 0  0.97 0 0  0.98 0 0  0.99 0 0  1 0 0  0 0.01 0  0.01 0.01 0  0.02 0.01 0  0.03 0.01 0  0.04 0.01 0  0.05 0.01 0  0.06 0.01 0  0.07000000000000001 0.01 0  0.08 0.01 0  0.09 0.01 0  0.1 0.01 0  0.11 0.01 0  0.12 0.01 0  0.13 0.01 0  0.14 0.01 0  0.15 0.01 0  0.16 0.01 0  0.17 0.01 0  0.18 0.01 0  0.19 0.01 0  0.2 0.01 0  0.21 0.01 0  0.22 0.01 0  0.23 0.01 0  0.24 0.01 0  0.25 0.01 0  0.26 0.01 0  0.27 0.01 0  0.28 0.01 0  0.29 0.01 0  0.3 0.01 0  0.31 0.01 0  0.32 0.01 0  0.33 0.01 0  0.34 0.01 0  0.35 0.01 0  0.36 0.01 0  0.37 0.01 0  0.38 0.01 0  0.39 0.01 0  0.4 0.01 0  0.41 0.01 0  0.42 0.01 0  0.43 0.01 0  0.44 0.01 0  0.45 0.01 0  0.46 0.01 0  0.47 0.01 0  0.48 0.01 0  0.49 0.01 0  0.5 0.01 0  0.51 0.01 0  0.52 0.01 0  0.53 0.01 0  0.54 0.01 0  0.55 0.01 0  0.5600000000000001 0.01 0  0.57 0.01 0  0.58 0.01 0  0.59 0.01 0  0.6 0.01 0  0.61 0.01 0  0.62 0.01 0  0.63 0.01 0  0.64 0.01 0  0.65 0.01 0  0.66 0.01 0  0.67 0.01 0  0.68 0.01 0  0.6899999999999999 0.01 0  0.7 0.01 0  0.71 0.01 0  0.72 0.01 0  0.73 0.01 0  0.74 0.01 0  0.75 0.01 0  0.76 0.01 0  0.77 0.01 0  0.78 0.01 0  0.79 0.01 0  0.8 0.01 0  0.8100000000000001 0.01 0  0.82 0.01 0  0.83 0.01 0  0.84 0.01 0  0.85 0.01 0  0.86 0.01 0  0.87 0.01 0  0.88 0.01 0  0.89 0.01 0  0.9 0.01 0  0.91 0.01 0  0.92 0.01 0  0.93 0.01 0  0.9399999999999999 0.01 0  0.95 0.01 0  0.96 0.01 0  0.97 0.01 0  0.98 0.01 0  0.99 0.01 0  1 0.01 0  0 0.02 0  0.01 0.02 0  0.02 0.02 0  0.03 0.02 0  0.04 0.02 0  0.05 0.02 0  0.06 0.02 0  0.07000000000000001 0.02 0  0.08 0.02 0  0.09 0.02 0  0.1 0.02 0  0.11 0.02 0  0.12 0.02 0  0.13 0.02 0  0.14 0.02 0  0.15 0.02 0  0.16 0.02 0  0.17 0.02 0  0.18 0.02 0  0.19 0.02 0  0.2 0.02 0  0.21 0.02 0  0.22 0.02 0  0.23 0.02 0  0.24 0.02 0  0.25 0.02 0  0.26 0.02 0  0.27 0.02 0  0.28 0.02 0  0.29 0.02 0  0.3 0.02 0  0.31 0.02 0  0.32 0.02 0  0.33 0.02 0  0.34 0.02 0  0.35 0.02 0  0.36 0.02 0  0.37 0.02 0  0.38 0.02 0  0.39 0.02 0  0.4 0.02 0  0.41 0.02 0  0.42 0.02 0  0.43 0.02 0  0.44 0.02 0  0.45 0.02 0  0.46 0.02 0  0.47 0.02 0  0.48 0.02 0  0.49 0.02 0  0.5 0.02 0  0.51 0.02 0  0.52 0.02 0  0.53 0.02 0  0.54 0.02 0  0.55 0.02 0  0.5600000000000001 0.02 0  0.57 0.02 0  0.58 0.02 0  0.59 0.02 0  0.6 0.02 0  0.61 0.02 0  0.62 0.02 0  0.63 0.02 0  0.64 0.02 0  0.65 0.02 0  0.66 0.02 0  0.67 0.02 0  0.68 0.02 0  0.6899999999999999 0.02 0  0.7 0.02 0  0.71 0.02 0  0.72 0.02 0  0.73 0.02 0  0.74 0.02 0  0.75 0.02 0  0.76 0.02 0  0.77 0.02 0  0.78 0.02 0  0.79 0.02 0  0.8 0.02 0  0.8100000000000001 0.02 0  0.82 0.02 0  0.83 0.02 0  0.84 0.02 0  0.85 0.02 0  0.86 0.02 0  0.87 0.02 0  0.88 0.02 0  0.89 0.02 0  0.9 0.02 0  0.91 0.02 0  0.92 0.02 0  0.93 0.02 0  0.9399999999999999 0.02 0  0.95 0.02 0  0.96 0.02 0  0.97 0.02 0  0.98 0.02 0  0.99 0.02 0  1 0.02 0  0 0.03 0  0.01 0.03 0  0.02 0.03 0  0.03 0.03 0  0.04 0.03 0  0.05 0.03 0  0.06 0.03 0  0.07000000000000001 0.03 0  0.08 0.03 0  0.09 0.03 0  0.1 0.03 0  0.11 0.03 0  0.12 0.03 0  0.13 0.03 0  0.14 0.03 0  0.15 0.03 0  0.16 0.03 0  0.17 0.03 0  0.18 0.03 0  0.19 0.03 0  0.2 0.03 0  0.21 0.03 0  0.22 0.03 0  0.23 0.03 0  0.24 0.03 0  0.25 0.03 0  0.26 0.03 0  0.27 0.03 0  0.28 0.03 0  0.29 0.03 0  0.3 0.03 0  0.31 0.03 0  0.32 0.03 0  0.33 0.03 0  0.34 0.03 0  0.35 0.03 0  0.36 0.03 0  0.37 0.03 0  0.38 0.03 0  0.39 0.03 0  0.4 0.03 0  0.41 0.03 0  0.42 0.03 0  0.43 0.03 0  0.44 0.03 0  0.45 0.03 0  0.46 0.03 0  0.47 0.03 0  0.48 0.03 0  0.49 0.03 0  0.5 0.03 0  0.51 0.03 0  0.52 0.03 0  0.53 0.03 0  0.54 0.03 0  0.55 0.03 0  0.5600000000000001 0.03 0  0.57 0.03 0  0.58 0.03 0  0.59 0.03 0  0.6 0.03 0  0.61 0.03 0  0.62 0.03 0  0.63 0.03 0  0.64 0.03 0  0.65 0.03 0  0.66 0.03 0  0.67 0.03 0  0.68 0.03 0  0.6899999999999999 0.03 0  0.7 0.03 0  0.71 0.03 0  0.72 0.03 0  0.73 0.03 0  0.74 0.03 0  0.75 0.03 0  0.76 0.03 0  0.77 0.03 0  0.78 0.03 0  0.79 0.03 0  0.8 0.03 0  0.8100000000000001 0.03 0  0.82 0.03 0  0.83 0.03 0  0.84 0.03 0  0.85 0.03 0  0.86 0.03 0  0.87 0.03 0  0.88 0.03 0  0.89 0.03 0  0.9 0.03 0  0.91 0.03 0  0.92 0.03 0  0.93 0.03 0  0.9399999999999999 0.03 0  0.95 0.03 0  0.96 0.03 0  0.97 0.03 0  0.98 0.03 0  0.99 0.03 0  1 0.03 0  0 0.04 0  0.01 0.04 0  0.02 0.04 0  0.03 0.04 0  0.04 0.04 0  0.05 0.04 0  0.06 0.04 0  0.07000000000000001 0.04 0  0.08 0.04 0  0.09 0.04 0  0.1 0.04 0  0.11 0.04 0  0.12 0.04 0  0.13 0.04 0  0.14 0.04 0  0.15 0.04 0  0.16 0.04 0  0.17 0.04 0  0.18 0.04 0  0.19 0.04 0  0.2 0.04 0  0.21 0.04 0  0.22 0.04 0  0.23 0.04 0  0.24 0.04 0  0.25 0.04 0  0.26 0.04 0  0.27 0.04 0  0.28 0.04 0  0.29 0.04 0  0.3 0.04 0  0.31 0.04 0  0.32 0.04 0  0.33 0.04 0  0.34 0.04 0  0.35 0.04 0  0.36 0.04 0  0.37 0.04 0  0.38 0.04 0  0.39 0.04 0  0.4 0.04 0  0.41 0.04 0  0.42 0.04 0  0.43 0.04 0  0.44 0.04 0  0.45 0.04 0  0.46 0.04 0  0.47 0.04 0  0.48 0.04 0  0.49 0.04 0  0.5 0.04 0  0.51 0.04 0  0.52 0.04 0  0.53 0.04 0  0.54 0.04 0  0.55 0.04 0  0.5600000000000001 0.04 0  0.57 0.04 0  0.58 0.04 0  0.59 0.04 0  0.6 0.04 0  0.61 0.04 0  0.62 0.04 0  0.63 0.04 0  0.64 0.04 0  0.65 0.04 0  0.66 0.04 0  0.67 0.04 0  0.68 0.04 0  0.6899999999999999 0.04 0  0.7 0.04 0  0.71 0.04 0  0.72 0.04 0  0.73 0.04 0  0.74 0.04 0  0.75 0.04 0  0.76 0.04 0  0.77 0.04 0  0.78 0.04 0  0.79 0.04 0  0.8 0.04 0  0.8100000000000001 0.04 0  0.82 0.04 0  0.83 0.04 0  0.84 0.04 0  0.85 0.04 0  0.86 0.04 0  0.87 0.04 0  0.88 0.04 0  0.89 0.04 0  0.9 0.04 0  0.91 0.04 0  0.92 0.04 0  0.93 0.04 0  0.9399999999999999 0.04 0  0.95 0.04 0  0.96 0.04 0  0.97 0.04 0  0.98 0.04 0  0.99 0.04 0  1 0.04 0  0 0.05 0  0.01 0.05 0  0.02 0.05 0  0.03 0.05 0  0.04 0.05 0  0.05 0.05 0  0.06 0.05 0  0.07000000000000001 0.05 0  0.08 0.05 0  0.09 0.05 0  0.1 0.05 0  0.11 0.05 0  0.12 0.05 0  0.13 0.05 0  0.14 0.05 0  0.15 0.05 0  0.16 0.05 0  0.17 0.05 0  0.18 0.05 0  0.19 0.05 0  0.2 0.05 0  0.21 0.05 0  0.22 0.05 0  0.23 0.05 0  0.24 0.05 0  0.25 0.05 0  0.26 0.05 0  0.27 0.05 0  0.28 0.05 0  0.29 0.05 0  0.3 0.05 0  0.31 0.05 0  0.32 0.05 0  0.33 0.05 0  0.34 0.05 0  0.35 0.05 0  0.36 0.05 0  0.37 0.05 0  0.38 0.05 0  0.39 0.05 0  0.4 0.05 0  0.41 0.05 0  0.42 0.05 0  0.43 0.05 0  0.44 0.05 0  0.45 0.05 0  0.46 0.05 0  0.47 0.05 0  0.48 0.05 0  0.49 0.05 0  0.5 0.05 0  0.51 0.05 0  0.52 0.05 0  0.53 0.05 0  0.54 0.05 0  0.55 0.05 0  0.5600000000000001 0.05 0  0.57 0.05 0  0.58 0.05 0  0.59 0.05 0  0.6 0.05 0  0.61 0.05 0  0.62 0.05 0  0.63 0.05 0  0.64 0.05 0  0.65 0.05 0  0.66 0.05 0  0.67 0.05 0  0.68 0.05 0  0.6899999999999999 0.05 0  0.7 0.05 0  0.71 0.05 0  0.72 0.05 0  0.73 0.05 0  0.74 0.05 0  0.75 0.05 0  0.76 0.05 0  0.77 0.05 0  0.78 0.05 0  0.79 0.05 0  0.8 0.05 0  0.8100000000000001 0.05 0  0.82 0.05 0  0.83 0.05 0  0.84 0.05 0  0.85 0.05 0  0.86 0.05 0  0.87 0.05 0  0.88 0.05 0  0.89 0.05 0  0.9 0.05 0  0.91 0.05 0  0.92 0.05 0  0.93 0.05 0  0.9399999999999999 0.05 0  0.95 0.05 0  0.96 0.05 0  0.97 0.05 0  0.98 0.05 0  0.99 0.05 0  1 0.05 0  0 0.06 0  0.01 0.06 0  0.02 0.06 0  0.03 0.06 0  0.04 0.06 0  0.05 0.06 0  0.06 0.06 0  0.07000000000000001 0.06 0  0.08 0.06 0  0.09 0.06 0  0.1 0.06 0  0.11 0.06 0  0.12 0.06 0  0.13 0.06 0  0.14 0.06 0  0.15 0.06 0  0.16 0.06 0  0.17 0.06 0  0.18 0.06 0  0.19 0.06 0  0.2 0.06 0  0.21 0.06 0  0.22 0.06 0  0.23 0.06 0  0.24 0.06 0  0.25 0.06 0  0.26 0.06 0  0.27 0.06 0  0.28 0.06 0  0.29 0.06 0  0.3 0.06 0  0.31 0.06 0  0.32 0.06 0  0.33 0.06 0  0.34 0.06 0  0.35 0.06 0  0.36 0.06 0  0.37 0.06 0  0.38 0.06 0  0.39 0.06 0  0.4 0.06 0  0.41 0.06 0  0.42 0.06 0  0.43 0.06 0  0.44 0.06 0  0.45 0.06 0  0.46 0.06 0  0.47 0.06 0  0.48 0.06 0  0.49 0.06 0  0.5 0.06 0  0.51 0.06 0  0.52 0.06 0  0.53 0.06 0  0.54 0.06 0  0.55 0.06 0  0.5600000000000001 0.06 0  0.57 0.06 0  0.58 0.06 0  0.59 0.06 0  0.6 0.06 0  0.61 0.06 0  0.62 0.06 0  0.63 0.06 0  0.64 0.06 0  0.65 0.06 0  0.66 0.06 0  0.67 0.06 0  0.68 0.06 0  0.6899999999999999 0.06 0  0.7 0.06 0  0.71 0.06 0  0.72 0.06 0  0.73 0.06 0  0.74 0.06 0  0.75 0.06 0  0.76 0.06 0  0.77 0.06 0  0.78 0.06 0  0.79 0.06 0  0.8 0.06 0  0.8100000000000001 0.06 0  0.82 0.06 0  0.83 0.06 0  0.84 0.06 0  0.85 0.06 0  0.86 0.06 0  0.87 0.06 0  0.88 0.06 0  0.89 0.06 0  0.9 0.06 0  0.91 0.06 0  0.92 0.06 0  0.93 0.06 0  0.9399999999999999 0.06 0  0.95 0.06 0  0.96 0.06 0  0.97 0.06 0  0.98 0.06 0  0.99 0.06 0  1 0.06 0  0 0.07000000000000001 0  0.01 0.07000000000000001 0  0.02 0.07000000000000001 0  0.03 0.07000000000000001 0  0.04 0.07000000000000001 0  0.05 0.07000000000000001 0  0.06 0.07000000000000001 0  0.07000000000000001 0.07000000000000001 0  0.08 0.07000000000000001 0  0.09 0.07000000000000001 0  0.1 0.07000000000000001 0  0.11 0.07000000000000001 0  0.12 0.07000000000000001 0  0.13 0.07000000000000001 0  0.14 0.07000000000000001 0  0.15 0.07000000000000001 0  0.16 0.07000000000000001 0  0.17 0.0700
[...]
<PointData  Scalars="f_17"> 
<DataArray  type="Float64"  Name="f_17"  format="ascii">0.0000000000000000e+00  5.0000000000000000e+01  5.0000000000000000e+01  5.0000000000000000e+01  5.0000000000000000e+01  5.0000000000000000e+01  5.0000000000000000e+01  5.0000000000000000e+01  5.0000000000000000e+01  5.0000000000000000e+01  5.0000000000000000e+01  5.0000000000000000e+01  5.0000000000000000e+01  5.0000000000000000e+01  5.0000000000000000e+01  5.0000000000000000e+01  5.0000000000000000e+01  5.0000000000000000e+01  5.0000000000000000e+01  5.0000000000000000e+01  5.0000000000000000e+01  5.0000000000000000e+01  5.0000000000000000e+01  5.0000000000000000e+01  5.0000000000000000e+01  5.0000000000000000e+01  5.0000000000000000e+01  5.0000000000000000e+01  5.0000000000000000e+01  5.0000000000000000e+01  5.0000000000000000e+01  5.0000000000000000e+01  5.0000000000000000e+01  5.0000000000000000e+01  5.0000000000000000e+01  5.0000000000000000e+01  5.0000000000000000e+01  5.0000000000000000e+01  5.0000000000000000e+01  5.0000000000000000e+01  5.0000000000000000e+01  5.0000000000000000e+01  5.0000000000000000e+01  5.0000000000000000e+01  5.0000000000000000e+01  5.0000000000000000e+01  5.0000000000000000e+01  5.0000000000000000e+01  5.0000000000000000e+01  5.0000000000000000e+01  5.0000000000000000e+01  5.0000000000000000e+01  5.0000000000000000e+01  5.0000000000000000e+01  5.0000000000000000e+01  5.0000000000000000e+01  5.0000000000000000e+01  5.0000000000000000e+01  5.0000000000000000e+01  5.0000000000000000e+01  5.0000000000000000e+01  5.0000000000000000e+01  5.0000000000000000e+01  5.0000000000000000e+01  5.0000000000000000e+01  5.0000000000000000e+01  5.0000000000000000e+01  5.0000000000000000e+01  5.0000000000000000e+01  5.0000000000000000e+01  5.0000000000000000e+01  5.0000000000000000e+01  5.0000000000000000e+01  5.0000000000000000e+01  5.0000000000000000e+01  5.0000000000000000e+01  5.0000000000000000e+01  5.0000000000000000e+01  5.0000000000000000e+01  5.0000000000000000e+01  5.0000000000000000e+01  5.0000000000000000e+01  5.0000000000000000e+01  5.0000000000000000e+01  5.0000000000000000e+01  5.0000000000000000e+01  5.0000000000000000e+01  5.0000000000000000e+01  5.0000000000000000e+01  5.0000000000000000e+01  5.0000000000000000e+01  5.0000000000000000e+01  5.0000000000000000e+01  5.0000000000000000e+01  5.0000000000000000e+01  5.0000000000000000e+01  5.0000000000000000e+01  5.0000000000000000e+01  5.0000000000000000e+01  5.0000000000000000e+01  0.0000000000000000e+00  0.0000000000000000e+00  2.4894146998813625e+01  3.5042292274807899e+01  3.9444246690209638e+01  4.1782795690122320e+01  4.3194821874366262e+01  4.4120623394589110e+01  4.4762177918664896e+01  4.5224299905920859e+01  4.5566586098489182e+01  4.5825366846043437e+01  4.6024029755073414e+01  4.6178300698582760e+01  4.6299133995220672e+01  4.6394384250299630e+01  4.6469819335924001e+01  4.6529758884457664e+01  4.6577490725727969e+01  4.6615550756626803e+01  4.6645916094573771e+01  4.6670141588237200e+01  4.6689458376642023e+01  4.6704846425101593e+01  4.6717088833597906e+01  4.6726813123574360e+01  4.6734523049667402e+01  4.6740623397893991e+01  4.6745439509235972e+01  4.6749232778139522e+01  4.6752213038616809e+01  4.6754548515272099e+01  4.6756373849625277e+01  4.6757796591925811e+01  4.6758902460825489e+01  4.6759759608130402e+01  4.6760422076783058e+01  4.6760932602713027e+01  4.6761324882097327e+01  4.6761625402691102e+01  4.6761854919674505e+01  4.6762029641799359e+01  4.6762162181706195e+01  4.6762262314529416e+01  4.6762337580870010e+01  4.6762393763560389e+01  4.6762435262108482e+01  4.6762465384081231e+01  4.6762486568803453e+01  4.6762500555461195e+01  4.6762508504893567e+01  4.6762511081924160e+01  4.6762508502932327e+01  4.6762500551407463e+01  4.6762486562388084e+01  4.6762465374884400e+01  4.6762435249539244e+01  4.6762393746829446e+01  4.6762337558954286e+01  4.6762262286128305e+01  4.6762162145188057e+01  4.6762029595138735e+01  4.6761854860378484e+01  4.6761625327714754e+01  4.6761324787747967e+01  4.6760932484543709e+01  4.6760421929475562e+01  4.6759759425369751e+01  4.6758902235166936e+01  4.6757796314658734e+01  4.6756373510636912e+01  4.6754548102917319e+01  4.6752212539599611e+01  4.6749232177414598e+01  4.6745438789939243e+01  4.6740622541311140e+01  4.6734522035252319e+01  4.6726811929026383e+01  4.6717087435010122e+01  4.6704844797187555e+01  4.6689456493049533e+01  4.6670139421952264e+01  4.6645913618416074e+01  4.6615547943831523e+01  4.6577487550603635e+01  4.6529755323102989e+01  4.6469815366979972e+01  4.6394379855704443e+01  4.6299129160929375e+01  4.6178295415204417e+01  4.6024024018372195e+01  4.5825360657242499e+01  4.5566579464303786e+01  4.5224292838229395e+01  4.4762170433683458e+01  4.4120615511310703e+01  4.3194813611726019e+01  4.1782787061371423e+01  3.9444237689152558e+01  3.5042282830353216e+01  2.4894136768900989e+01  0.0000000000000000e+00  0.0000000000000000e+00  1.4535748516570605e+01  2.4579494406312044e+01  3.0656007752376080e+01  3.4407110145957773e+01  3.6849651421956438e+01  3.8519673289074561e+01  3.9706631218012738e+01  4.0575720773937320e+01  4.1226658773922239e+01  4.1722708209681961e+01  4.2105747549380830e+01  4.2404512240922344e+01  4.2639324047792194e+01  4.2824923963397715e+01  4.2972234825194946e+01  4.3089495511200340e+01  4.3183012958908655e+01  4.3257674357393341e+01  4.3317304549934320e+01  4.3364920958998084e+01  4.3402919072403428e+01  4.3433209859275266e+01  4.3457323239019246e+01  4.3476487125905450e+01  4.3491688590446060e+01  4.3503721710546699e+01  4.3513225363756078e+01  4.3520713310246073e+01  4.3526598291656157e+01  4.3531211432071778e+01  4.3534817914536376e+01  4.3537629680210230e+01  4.3539815731217708e+01  4.3541510494525696e+01  4.3542820610674930e+01  4.3543830439428227e+01  4.3544606518548370e+01  4.3545201167860199e+01  4.3545655395571593e+01  4.3546001235428058e+01  4.3546263620149332e+01  4.3546461877612217e+01  4.3546610920570807e+01  4.3546722187704930e+01  4.3546804382948942e+01  4.3546864050988908e+01  4.3546906019192157e+01  4.3546933729778303e+01  4.3546949480522336e+01  4.3546954587494071e+01  4.3546949479099005e+01  4.3546933726831043e+01  4.3546906014514384e+01  4.3546864044257497e+01  4.3546804373707516e+01  4.3546722175341088e+01  4.3546610904286752e+01  4.3546461856388291e+01  4.3546263592699006e+01  4.3546001200144502e+01  4.3545655350465225e+01  4.3545201110485976e+01  4.3544606445922817e+01  4.3543830347936712e+01  4.3542820495968392e+01  4.3541510351409457e+01  4.3539815553532272e+01  4.3537629460707748e+01  4.3534817644755883e+01  4.3531211102217952e+01  4.3526597890486848e+01  4.3520712824976293e+01  4.3513224779985947e+01  4.3503721012222719e+01  4.3491687759864632e+01  4.3476486143769577e+01  4.3457322084556949e+01  4.3433208510429175e+01  4.3402917506096308e+01  4.3364919151479235e+01  4.3317302477205750e+01  4.3257671995709067e+01  4.3183010285335548e+01  4.3089492504221234e+01  4.2972231465326104e+01  4.2824920233784866e+01  4.2639319934739937e+01  4.2404507734302705e+01  4.2105742642855866e+01  4.1722702900664004e+01  4.1226653063176286e+01  4.0575714664703888e+01  3.9706624714471438e+01  3.8519666393853953e+01  3.6849644132144789e+01  3.4407102446548599e+01  3.0655999605432903e+01  2.4579485738075348e+01  1.4535739265907505e+01  0.0000000000000000e+00  0.0000000000000000e+00  9.9264374026974096e+00  1.8089700664452792e+01  2.4064669208062590e+01  2.8274888249916643e+01  3.1253326980959159e+01  3.3399384234870162e+01  3.4977957066398645e+01  3.6161108956626585e+01  3.7062005693396102e+01  3.7756832110782980e+01  3.8298211858929541e+01  3.8723404956662826e+01  3.9059395005208792e+01  3.9326117431957400e+01  3.9538558126770859e+01  3.9708150858987246e+01  3.9843729436474739e+01  3.9952190728852266e+01  4.0038965843218548e+01  4.0108361366468550e+01  4.0163810876498317e+01  4.0208063328078801e+01  4.0243326240463006e+01  4.0271375973934880e+01  4.0293643655615497e+01  4.0311282813281515e+01  4.0325223071999055e+01  4.0336213091377658e+01  4.0344855097168754e+01  4.0351632776191721e+01  4.0356933883057998e+01  4.0361068600590798e+01  4.0364284469177832e+01  4.0366778530293999e+01  4.0368707200060271e+01  4.0370194288824962e+01  4.0371337504558902e+01  4.0372213715833844e+01  4.0372883200373117e+01  4.0373393064797540e+01  4.0373779988165914e+01  4.0374072414707641e+01  4.0374292298605951e+01  4.0374456484932850e+01  4.0374577795165131e+01  4.0374665872564293e+01  4.0374727831626529e+01  4.0374768746409920e+01  4.0374792004499398e+01  4.0374799546377119e+01  4.0374792003767652e+01  4.0374768744883575e+01  4.0374727829175846e+01  4.0374665868984430e+01  4.0374577790163421e+01  4.0374456478111291e+01  4.0374292289438003e+01  4.0374072402509206e+01  4.0373779972059289e+01  4.0373393043667697e+01  4.0372883172815506e+01  4.0372213680092948e+01  4.0371337458456935e+01  4.0370194229680244e+01  4.0368707124595524e+01  4.0366778434534474e+01  4.0364284348340590e+01  4.0361068448967217e+01  4.0356933693891918e+01  4.0351632541557429e+01  4.0344854807853352e+01  4.0336212736774783e+01  4.0325222640021188e+01  4.0311282290299268e+01  4.0293643026433955e+01  4.0271375221816307e+01  4.0243325347206095e+01  4.0208062274162991e+01  4.0163809641300638e+01  4.0108359928555892e+01  4.0038964180716462e+01  3.9952188819882920e+01  3.9843727259652233e+01  3.9708148393949443e+01  3.9538555354717658e+01  3.9326114336155413e+01  3.9059391571412966e+01  3.8723401173392588e+01  3.8298207717527156e+01  3.7756827605166478e+01  3.7062000819403870e+01  3.6161103710824996e+01  3.4977951444188626e+01  3.3399378227674525e+01  3.1253320572222382e+01  2.8274881409757111e+01  2.4064661887396159e+01  1.8089692793363390e+01  9.9264288976875559e+00  0.0000000000000000e+00  0.0000000000000000e+00  7.3847982588449375e+00  1.3933820242805574e+01  1.9250757569270352e+01  2.3363562121693597e+01  2.6487194232107342e+01  2.8856045661397310e+01  3.0663483568269420e+01  3.2054552863635287e+01  3.3134662734318880e+01  3.3980041469530512e+01  3.4646193304377590e+01  3.5174010774083058e+01  3.5594026255944392e+01  3.5929341559963838e+01  3.6197654219989623e+01  3.6412673229118312e+01  3.6585121277563147e+01  3.6723454616692550e+01  3.6834387860094424e+01  3.6923282254367038e+01  3.6994437049074129e+01  3.7051311105823984e+01  3.7096693561945621e+01  3.7132836759069306e+01  3.7161560831878042e+01  3.7184336727026718e+01  3.7202352595668046e+01  3.7216567218038485e+01  3.7227753204368227e+01  3.7236532058450592e+01  3.7243402710990537e+01  3.7248764776393642e+01  3.7252937522499721e+01  3.7256175342629575e+01  3.7258680365553275e+01  3.7260612719203927e+01  3.7262098869388254e+01  3.7263238379132638e+01  3.7264109373172595e+01  3.7264772942184472e+01  3.7265276680283073e+01  3.7265657515285334e+01  3.7265943962912516e+01  3.7266157912426728e+01  3.7266316031336139e+01  3.7266430860090594e+01  3.7266511653558652e+01  3.7266565014059204e+01  3.7266595350404771e+01  3.7266605188429736e+01  3.7266595350500602e+01  3.7266565014231823e+01  3.7266511653767324e+01  3.7266430860267384e+01  3.7266316031377251e+01  3.7266157912180560e+01  3.7265943962162893e+01  3.7265657513730275e+01  3.7265276677507501e+01  3.7264772937626056e+01  3.7264109366079623e+01  3.7263238368512738e+01  3.7262098853947130e+01  3.7260612697273146e+01  3.7258680335006090e+01  3.7256175300785095e+01  3.7252937466015076e+01  3.7248764701146101e+01  3.7243402611950607e+01  3.7236531929550090e+01  3.7227753038366998e+01  3.7216567006396673e+01  3.7202352328430166e+01  3.7184336392727175e+01  3.7161560417477766e+01  3.7132836249934222e+01  3.7096692941878125e+01  3.7051310357157909e+01  3.6994436152841701e+01  3.6923281190544152e+01  3.6834386607925346e+01  3.6723453155089658e+01  3.6585119585569977e+01  3.6412671286415090e+01  3.6197652007409864e+01  3.5929339059979732e+01  3.5594023453066676e+01  3.5174007655108795e+01  3.4646189858406586e+01  3.3980037687659681e+01  3.3134658608910598e+01  3.2054548387043603e+01  3.0663478730897729e+01  2.8856040448966176e+01  2.6487188622066643e+01  2.3363556078926248e+01  1.9250751041726783e+01  1.3933813157896623e+01  7.3847905180047295e+00  0.0000000000000000e+00  0.0000000000000000e+00  5.7752286255050445e+00  1.1097554495006921e+01  1.5685107721713925e+01  1.9463201666199613e+01  2.2494655603377801e+01  2.4897682502066811e+01  2.6795486510904787e+01  2.8295418532770171e+01  2.9484206895503277e+01  3.0429654109012887e+01  3.1184120446353955e+01  3.1787967590760942e+01  3.2272415957063231e+01  3.2661758595993987e+01  3.2975027745514559e+01  3.3227236410217060e+01  3.3430302680115048e+01  3.3593741040656290e+01  3.3725183345742558e+01  3.3830775033155710e+01  3.3915479436999270e+01  3.3983313845851690e+01  3.4037534380340375e+01  3.4080782088950976e+01  3.4115199335995989e+01  3.4142523183300511e+01  3.4164160765716360e+01  3.4181250432275171e+01  3.4194711531175315e+01  3.4205285060896870e+01  3.4213566923512118e+01  3.4220035151834033e+01  3.4225072205624961e+01  3.4228983219744386e+01  3.4232010921836618e+01  3.4234347806817063e+01  3.4236146051318109e+01  3.4237525567135307e+01  3.4238580524033964e+01  3.4239384615698839e+01  3.4239995295670155e+01  3.4240457170945696e+01  3.4240804708113536e+01  3.4241064379295182e+01  3.4241256351925031e+01  3.4241395806734928e+01  3.4241493951629302e+01  3.4241558784897663e+01  3.4241595648948639e+01  3.4241607605044280e+01  3.4241595649986678e+01  3.4241558787003484e+01  3.4241493954861127e+01  3.4241395811176915e+01  3.4241256357682801e+01  3.4241064386489327e+01  3.4240804716869761e+01  3.4240457181381338e+01  3.4239995307875553e+01  3.4239384629712390e+01  3.4238580539809540e+01  3.4237525584500197e+01  3.4236146069920288e+01  3.4234347826059960e+01  3.4232010940800009e+01  3.4228983237090482e+01  3.4225072219488915e+01  3.4220035159699606e+01  3.4213566922072886e+01  3.4205285045906351e+01  3.4194711497289191e+01  3.4181250372891746e+01  3.4164160672822710e+01  3.4142523047333540e+01  3.4115199145729711e+01  3.4080781831422200e+01  3.4037534040826301e+01  3.3983313407912462e+01  3.3915478882596908e+01  3.3830774342859186e+01  3.3725182499023063e+01  3.3593740016271546e+01  3.3430301456572451e+01  3.3227234966296393e+01  3.2975026060818628e+01  3.2661756651483465e+01  3.2272413735518342e+01  3.1787965077100093e+01  3.1184117627726639e+01  3.0429650974574269e+01  2.9484203435771132e+01  2.8295414738462316e+01  2.6795482371164987e+01  2.4897678002015681e+01  2.2494650720993977e+01  1.9463196368655222e+01  1.5685101961376079e+01  1.1097548205026301e+01  5.7752217138441395e+00  0.0000000000000000e+00  0.0000000000000000e+00  4.6585956161522448e+00  9.0471839331706239e+00  1.2971783573767114e+01  1.6343994177654245e+01  1.9163162049711158e+01  2.1480146365092708e+01  2.3366207554948055e+01  2.4894166808755656e+01  2.6129641793150366e+01  2.7128247180188115e+01  2.7935673282722760e+01  2.8588886384762080e+01  2.9117599285340610e+01  2.9545655013738948e+01  2.9892205218057370e+01  3.0172668335950092e+01  3.0399491614949969e+01  3.0582751366365287e+01  3.0730624647527353e+01  3.0849760560741611e+01  3.0945573750628842e+01  3.1022477667857991e+01  3.1084071069438163e+01  3.1133288021636780e+01  3.1172519224496838e+01  3.1203710630901064e+01  3.1228443948337169e+01  3.1248002573928247e+01  3.1263425734235646e+01  3.1275553013678174e+01  3.1285061009094544e+01  3.1292493506071800e+01  3.1298286308068565e+01  3.1302787642281952e+01  3.1306274902197412e+01  3.1308968355298816e+01  3.1311042337824929e+01  3.1312634371117497e+01  3.1313852561880090e+01  3.1314781588485804e+01  3.1315487525025848e+01  3.1316021712316832e+01  3.1316423849211660e+01  3.1316724447184928e+01  3.1316946765404118e+01  3.1317108321599292e+01  3.1317222055370728e+01  3.1317297204566295e+01  3.1317339941523109e+01  3.1317353803847794e+01  3.1317339943593794e+01  3.1317297208789967e+01  3.1317222061912098e+01  3.1317108330705992e+01  3.1316946777406482e+01  3.1316724462495063e+01  3.1316423868320378e+01  3.1316021735788052e+01  3.1315487553486300e+01  3.1314781622609065e+01  3.1313852602362598e+01  3.1312634418645196e+01  3.1311042393027233e+01  3.1308968418688657e+01  3.1306274974094539e+01  3.1302787722717792e+01  3.1298286396671045e+01  3.1292493601929593e+01  3.1285061110600800e+01  3.1275553118356225e+01  3.1263425838549306e+01  3.1248002673083036e+01  3.1228444036080283e+01  3.1203710699330145e+01  3.1172519263890603e+01  3.1133288020322034e+01  3.1084071013709334e+01  3.1022477541965966e+01  3.0945573536854834e+01  3.0849760239569381e+01  3.0730624197922989e+01  3.0582750766166225e+01  3.0399490841357785e+01  3.0172667366108605e+01  2.9892204029686344e+01  2.9545653585778680e+01  2.9117597598548901e+01  2.8588884422190166e+01  2.7935671029986061e+01  2.7128244625438107e+01  2.6129638926651555e+01  2.4894163621976592e+01  2.3366204039093500e+01  2.1480142509038380e+01  1.9163157837358039e+01  1.6343989584780438e+01  1.2971778564474347e+01  9.0471784559379920e+00  4.6585895993851461e+00  0.0000000000000000e+00  0.0000000000000000e+00  3.8339512286929689e+00  7.4953051055479891e+00  1.0848948011881671e+01  1.3816619105846632e+01  1.6374515081550982e+01  1.8538108137493719e+01  2.0344931737737213e+01  2.1841255969683086e+01  2.3073847166735614e+01  2.4085755713479262e+01  2.4914658235493569e+01  2.5592595532056876e+01  2.6146371884178901e+01  2.6598205586371652e+01  2.6966423609261550e+01  2.7266107330011852e+01  2.7509655469437345e+01  2.7707258835638868e+01  2.7867293757465205e+01  2.7996645324203183e+01  2.8100972036243206e+01  2.8184922401188050e+01  2.8252312440799876e+01  2.8306271487129450e+01  2.8349362233934354e+01  2.8383679827642517e+01  2.8410933825276764e+01  2.8432516086073086e+01  2.8449557064328825e+01  2.8462972500485758e+01  2.8473502137474220e+01  2.8481741797063709e+01  2.8488169918403550e+01  2.8493169474234421e+01  2.8497046028873481e+01  2.8500042578089211e+01  2.8502351708439608e+01  2.8504125528097600e+01  2.8505483749287077e+01  2.8506520241668799e+01  2.8507308324411703e+01  2.8507905020745373e+01  2.8508354461310891e+01  2.8508690590624973e+01  2.8508939303625141e+01  2.8509120115862999e+01  2.8509247450843802e+01  2.8509331610718082e+01  2.8509379481515964e+01  2.8509395010911383e+01  2.8509379484683546e+01  2.8509331617190547e+01  2.8509247460897356e+01  2.8509120129916084e+01  2.8508939322242682e+01  2.8508690614522891e+01  2.8508354491359849e+01  2.8507905057972724e+01  2.8507308369999436e+01  2.8506520296945954e+01  2.8505483815714047e+01  2.8504125607239885e+01  2.8502351801927944e+01  2.8500042687563052e+01  2.8497046155904577e+01  2.8493169620227949e+01  2.8488170084474117e+01  2.8481741983884589e+01  2.8473502345099561e+01  2.8462972728146877e+01  2.8449557310207709e+01  2.8432516347058936e+01  2.8410934096714268e+01  2.8383680103083368e+01  2.8349362504906420e+01  2.8306271742941572e+01  2.8252312668401604e+01  2.8184922585105159e+01  2.8100972158609547e+01  2.7996645364907355e+01  2.7867293694426120e+01  2.7707258645217134e+01  2.7509655126980533e+01  2.7266106810518828e+01  2.6966422888137966e+01  2.6598204640231984e+01  2.6146370691635550e+01  2.5592594074421275e+01  2.4914656497302271e+01  2.4085753682750290e+01  2.3073844834859528e+01  2.1841253330861978e+01  2.0344928787905992e+01  1.8538104872692259e+01  1.6374511495762871e+01  1.3816615188370077e+01  1.0848943744339724e+01  7.4953004586898828e+00  3.8339461592136170e+00  0.0000000000000000e+00  0.0000000000000000e+00  3.1973590901552371e+00  6.2784724321041594e+00  9.1471472399141067e+00  1.1739482956050647e+01  1.4025633590657511e+01  1.6003806557103189e+01  1.7691206471997582e+01  1.9115529098101231e+01  2.0308609323984882e+01  2.1302374884964880e+01  2.2126617189941605e+01  2.2807979698341651e+01  2.3369674462718237e+01  2.3831591279085362e+01  2.4210592201798605e+01  2.4520873085274680e+01  2.4774329513193280e+01  2.4980897091901863e+01  2.5148854150863890e+01  2.5285084331117972e+01  2.5395301092530087e