<?xml version="1.0"?>
<VTKFile type="UnstructuredGrid"  version="0.1"  >
<UnstructuredGrid>
<Piece  NumberOfPoints="10201" NumberOfCells="20000">
<Points>
<DataArray  type="Float64"  NumberOfComponents="3"  format="ascii">0 0 0  0.01 0 0  0.02 0 0  0.03 0 0  0.04 0 0  0.05 0 0  0.06 0 0  0.07000000000000001 0 0  0.08 0 0  0.09 0 0  0.1 0 0  0.11 0 0  0.12 0 0  0.13 0 0  0.14 0 0  0.15 0 0  0.16 0 0  0.17 0 0  0.18 0 0  0.19 0 0  0.2 0 0  0.21 0 0  0.22 0 0  0.23 0 0  0.24 0 0  0.25 0 0  0.26 0 0  0.27 0 0  0.28 0 0  0.29 0 0  0.3 0 0  0.31 0 0  0.32 0 0  0.33 0 0  0.34 0 0  0.35 0 0  0.36 0 0  0.37 0 0  0.38 0 0  0.39 0 0  0.4 0 0  0.41 0 0  0.42 0 0  0.43 0 0  0.44 0 0  0.45 0 0  0.46 0 0  0.47 0 0  0.48 0 0  0.49 0 0  0.5 0 0  0.51 0 0  0.52 0 0  0.53 0 0  0.54 0 0  0.55 0 0  0.5600000000000001 0 0  0.57 0 0  0.58 0 0  0.59 0 0  0.6 0 0  0.61 0 0  0.62 0 0  0.63 0 0  0.64 0 0  0.65 0 0  0.66 0 0  0.67 0 0  0.68 0 0  0.6899999999999999 0 0  0.7 0 0  0.71 0 0  0.72 0 0  0.73 0 0  0.74 0 0  0.75 0 0  0.76 0 0  0.77 0 0  0.78 0 0  0.79 0 0  0.8 0 0  0.8100000000000001 0 0  0.82 0 0  0.83 0 0  0.84 0 0  0.85 0 0  0.86 0 0  0.87 0 0  0.88 0 0  0.89 0 0  0.9 0 0  0.91 0 0  0.92 0 0  0.93 0 0  0.9399999999999999 0 0  0.95 0 0  0.96 0 0  0.97 0 0  0.98 0 0  0.99 0 0  1 0 0  0 0.01 0  0.01 0.01 0  0.02 0.01 0  0.03 0.01 0  0.04 0.01 0  0.05 0.01 0  0.06 0.01 0  0.07000000000000001 0.01 0  0.08 0.01 0  0.09 0.01 0  0.1 0.01 0  0.11 0.01 0  0.12 0.01 0  0.13 0.01 0  0.14 0.01 0  0.15 0.01 0  0.16 0.01 0  0.17 0.01 0  0.18 0.01 0  0.19 0.01 0  0.2 0.01 0  0.21 0.01 0  0.22 0.01 0  0.23 0.01 0  0.24 0.01 0  0.25 0.01 0  0.26 0.01 0  0.27 0.01 0  0.28 0.01 0  0.29 0.01 0  0.3 0.01 0  0.31 0.01 0  0.32 0.01 0  0.33 0.01 0  0.34 0.01 0  0.35 0.01 0  0.36 0.01 0  0.37 0.01 0  0.38 0.01 0  0.39 0.01 0  0.4 0.01 0  0.41 0.01 0  0.42 0.01 0  0.43 0.01 0  0.44 0.01 0  0.45 0.01 0  0.46 0.01 0  0.47 0.01 0  0.48 0.01 0  0.49 0.01 0  0.5 0.01 0  0.51 0.01 0  0.52 0.01 0  0.53 0.01 0  0.54 0.01 0  0.55 0.01 0  0.5600000000000001 0.01 0  0.57 0.01 0  0.58 0.01 0  0.59 0.01 0  0.6 0.01 0  0.61 0.01 0  0.62 0.01 0  0.63 0.01 0  0.64 0.01 0  0.65 0.01 0  0.66 0.01 0  0.67 0.01 0  0.68 0.01 0  0.6899999999999999 0.01 0  0.7 0.01 0  0.71 0.01 0  0.72 0.01 0  0.73 0.01 0  0.74 0.01 0  0.75 0.01 0  0.76 0.01 0  0.77 0.01 0  0.78 0.01 0  0.79 0.01 0  0.8 0.01 0  0.8100000000000001 0.01 0  0.82 0.01 0  0.83 0.01 0  0.84 0.01 0  0.85 0.01 0  0.86 0.01 0  0.87 0.01 0  0.88 0.01 0  0.89 0.01 0  0.9 0.01 0  0.91 0.01 0  0.92 0.01 0  0.93 0.01 0  0.9399999999999999 0.01 0  0.95 0.01 0  0.96 0.01 0  0.97 0.01 0  0.98 0.01 0  0.99 0.01 0  1 0.01 0  0 0.02 0  0.01 0.02 0  0.02 0.02 0  0.03 0.02 0  0.04 0.02 0  0.05 0.02 0  0.06 0.02 0  0.07000000000000001 0.02 0  0.08 0.02 0  0.09 0.02 0  0.1 0.02 0  0.11 0.02 0  0.12 0.02 0  0.13 0.02 0  0.14 0.02 0  0.15 0.02 0  0.16 0.02 0  0.17 0.02 0  0.18 0.02 0  0.19 0.02 0  0.2 0.02 0  0.21 0.02 0  0.22 0.02 0  0.23 0.02 0  0.24 0.02 0  0.25 0.02 0  0.26 0.02 0  0.27 0.02 0  0.28 0.02 0  0.29 0.02 0  0.3 0.02 0  0.31 0.02 0  0.32 0.02 0  0.33 0.02 0  0.34 0.02 0  0.35 0.02 0  0.36 0.02 0  0.37 0.02 0  0.38 0.02 0  0.39 0.02 0  0.4 0.02 0  0.41 0.02 0  0.42 0.02 0  0.43 0.02 0  0.44 0.02 0  0.45 0.02 0  0.46 0.02 0  0.47 0.02 0  0.48 0.02 0  0.49 0.02 0  0.5 0.02 0  0.51 0.02 0  0.52 0.02 0  0.53 0.02 0  0.54 0.02 0  0.55 0.02 0  0.5600000000000001 0.02 0  0.57 0.02 0  0.58 0.02 0  0.59 0.02 0  0.6 0.02 0  0.61 0.02 0  0.62 0.02 0  0.63 0.02 0  0.64 0.02 0  0.65 0.02 0  0.66 0.02 0  0.67 0.02 0  0.68 0.02 0  0.6899999999999999 0.02 0  0.7 0.02 0  0.71 0.02 0  0.72 0.02 0  0.73 0.02 0  0.74 0.02 0  0.75 0.02 0  0.76 0.02 0  0.77 0.02 0  0.78 0.02 0  0.79 0.02 0  0.8 0.02 0  0.8100000000000001 0.02 0  0.82 0.02 0  0.83 0.02 0  0.84 0.02 0  0.85 0.02 0  0.86 0.02 0  0.87 0.02 0  0.88 0.02 0  0.89 0.02 0  0.9 0.02 0  0.91 0.02 0  0.92 0.02 0  0.93 0.02 0  0.9399999999999999 0.02 0  0.95 0.02 0  0.96 0.02 0  0.97 0.02 0  0.98 0.02 0  0.99 0.02 0  1 0.02 0  0 0.03 0  0.01 0.03 0  0.02 0.03 0  0.03 0.03 0  0.04 0.03 0  0.05 0.03 0  0.06 0.03 0  0.07000000000000001 0.03 0  0.08 0.03 0  0.09 0.03 0  0.1 0.03 0  0.11 0.03 0  0.12 0.03 0  0.13 0.03 0  0.14 0.03 0  0.15 0.03 0  0.16 0.03 0  0.17 0.03 0  0.18 0.03 0  0.19 0.03 0  0.2 0.03 0  0.21 0.03 0  0.22 0.03 0  0.23 0.03 0  0.24 0.03 0  0.25 0.03 0  0.26 0.03 0  0.27 0.03 0  0.28 0.03 0  0.29 0.03 0  0.3 0.03 0  0.31 0.03 0  0.32 0.03 0  0.33 0.03 0  0.34 0.03 0  0.35 0.03 0  0.36 0.03 0  0.37 0.03 0  0.38 0.03 0  0.39 0.03 0  0.4 0.03 0  0.41 0.03 0  0.42 0.03 0  0.43 0.03 0  0.44 0.03 0  0.45 0.03 0  0.46 0.03 0  0.47 0.03 0  0.48 0.03 0  0.49 0.03 0  0.5 0.03 0  0.51 0.03 0  0.52 0.03 0  0.53 0.03 0  0.54 0.03 0  0.55 0.03 0  0.5600000000000001 0.03 0  0.57 0.03 0  0.58 0.03 0  0.59 0.03 0  0.6 0.03 0  0.61 0.03 0  0.62 0.03 0  0.63 0.03 0  0.64 0.03 0  0.65 0.03 0  0.66 0.03 0  0.67 0.03 0  0.68 0.03 0  0.6899999999999999 0.03 0  0.7 0.03 0  0.71 0.03 0  0.72 0.03 0  0.73 0.03 0  0.74 0.03 0  0.75 0.03 0  0.76 0.03 0  0.77 0.03 0  0.78 0.03 0  0.79 0.03 0  0.8 0.03 0  0.8100000000000001 0.03 0  0.82 0.03 0  0.83 0.03 0  0.84 0.03 0  0.85 0.03 0  0.86 0.03 0  0.87 0.03 0  0.88 0.03 0  0.89 0.03 0  0.9 0.03 0  0.91 0.03 0  0.92 0.03 0  0.93 0.03 0  0.9399999999999999 0.03 0  0.95 0.03 0  0.96 0.03 0  0.97 0.03 0  0.98 0.03 0  0.99 0.03 0  1 0.03 0  0 0.04 0  0.01 0.04 0  0.02 0.04 0  0.03 0.04 0  0.04 0.04 0  0.05 0.04 0  0.06 0.04 0  0.07000000000000001 0.04 0  0.08 0.04 0  0.09 0.04 0  0.1 0.04 0  0.11 0.04 0  0.12 0.04 0  0.13 0.04 0  0.14 0.04 0  0.15 0.04 0  0.16 0.04 0  0.17 0.04 0  0.18 0.04 0  0.19 0.04 0  0.2 0.04 0  0.21 0.04 0  0.22 0.04 0  0.23 0.04 0  0.24 0.04 0  0.25 0.04 0  0.26 0.04 0  0.27 0.04 0  0.28 0.04 0  0.29 0.04 0  0.3 0.04 0  0.31 0.04 0  0.32 0.04 0  0.33 0.04 0  0.34 0.04 0  0.35 0.04 0  0.36 0.04 0  0.37 0.04 0  0.38 0.04 0  0.39 0.04 0  0.4 0.04 0  0.41 0.04 0  0.42 0.04 0  0.43 0.04 0  0.44 0.04 0  0.45 0.04 0  0.46 0.04 0  0.47 0.04 0  0.48 0.04 0  0.49 0.04 0  0.5 0.04 0  0.51 0.04 0  0.52 0.04 0  0.53 0.04 0  0.54 0.04 0  0.55 0.04 0  0.5600000000000001 0.04 0  0.57 0.04 0  0.58 0.04 0  0.59 0.04 0  0.6 0.04 0  0.61 0.04 0  0.62 0.04 0  0.63 0.04 0  0.64 0.04 0  0.65 0.04 0  0.66 0.04 0  0.67 0.04 0  0.68 0.04 0  0.6899999999999999 0.04 0  0.7 0.04 0  0.71 0.04 0  0.72 0.04 0  0.73 0.04 0  0.74 0.04 0  0.75 0.04 0  0.76 0.04 0  0.77 0.04 0  0.78 0.04 0  0.79 0.04 0  0.8 0.04 0  0.8100000000000001 0.04 0  0.82 0.04 0  0.83 0.04 0  0.84 0.04 0  0.85 0.04 0  0.86 0.04 0  0.87 0.04 0  0.88 0.04 0  0.89 0.04 0  0.9 0.04 0  0.91 0.04 0  0.92 0.04 0  0.93 0.04 0  0.9399999999999999 0.04 0  0.95 0.04 0  0.96 0.04 0  0.97 0.04 0  0.98 0.04 0  0.99 0.04 0  1 0.04 0  0 0.05 0  0.01 0.05 0  0.02 0.05 0  0.03 0.05 0  0.04 0.05 0  0.05 0.05 0  0.06 0.05 0  0.07000000000000001 0.05 0  0.08 0.05 0  0.09 0.05 0  0.1 0.05 0  0.11 0.05 0  0.12 0.05 0  0.13 0.05 0  0.14 0.05 0  0.15 0.05 0  0.16 0.05 0  0.17 0.05 0  0.18 0.05 0  0.19 0.05 0  0.2 0.05 0  0.21 0.05 0  0.22 0.05 0  0.23 0.05 0  0.24 0.05 0  0.25 0.05 0  0.26 0.05 0  0.27 0.05 0  0.28 0.05 0  0.29 0.05 0  0.3 0.05 0  0.31 0.05 0  0.32 0.05 0  0.33 0.05 0  0.34 0.05 0  0.35 0.05 0  0.36 0.05 0  0.37 0.05 0  0.38 0.05 0  0.39 0.05 0  0.4 0.05 0  0.41 0.05 0  0.42 0.05 0  0.43 0.05 0  0.44 0.05 0  0.45 0.05 0  0.46 0.05 0  0.47 0.05 0  0.48 0.05 0  0.49 0.05 0  0.5 0.05 0  0.51 0.05 0  0.52 0.05 0  0.53 0.05 0  0.54 0.05 0  0.55 0.05 0  0.5600000000000001 0.05 0  0.57 0.05 0  0.58 0.05 0  0.59 0.05 0  0.6 0.05 0  0.61 0.05 0  0.62 0.05 0  0.63 0.05 0  0.64 0.05 0  0.65 0.05 0  0.66 0.05 0  0.67 0.05 0  0.68 0.05 0  0.6899999999999999 0.05 0  0.7 0.05 0  0.71 0.05 0  0.72 0.05 0  0.73 0.05 0  0.74 0.05 0  0.75 0.05 0  0.76 0.05 0  0.77 0.05 0  0.78 0.05 0  0.79 0.05 0  0.8 0.05 0  0.8100000000000001 0.05 0  0.82 0.05 0  0.83 0.05 0  0.84 0.05 0  0.85 0.05 0  0.86 0.05 0  0.87 0.05 0  0.88 0.05 0  0.89 0.05 0  0.9 0.05 0  0.91 0.05 0  0.92 0.05 0  0.93 0.05 0  0.9399999999999999 0.05 0  0.95 0.05 0  0.96 0.05 0  0.97 0.05 0  0.98 0.05 0  0.99 0.05 0  1 0.05 0  0 0.06 0  0.01 0.06 0  0.02 0.06 0  0.03 0.06 0  0.04 0.06 0  0.05 0.06 0  0.06 0.06 0  0.07000000000000001 0.06 0  0.08 0.06 0  0.09 0.06 0  0.1 0.06 0  0.11 0.06 0  0.12 0.06 0  0.13 0.06 0  0.14 0.06 0  0.15 0.06 0  0.16 0.06 0  0.17 0.06 0  0.18 0.06 0  0.19 0.06 0  0.2 0.06 0  0.21 0.06 0  0.22 0.06 0  0.23 0.06 0  0.24 0.06 0  0.25 0.06 0  0.26 0.06 0  0.27 0.06 0  0.28 0.06 0  0.29 0.06 0  0.3 0.06 0  0.31 0.06 0  0.32 0.06 0  0.33 0.06 0  0.34 0.06 0  0.35 0.06 0  0.36 0.06 0  0.37 0.06 0  0.38 0.06 0  0.39 0.06 0  0.4 0.06 0  0.41 0.06 0  0.42 0.06 0  0.43 0.06 0  0.44 0.06 0  0.45 0.06 0  0.46 0.06 0  0.47 0.06 0  0.48 0.06 0  0.49 0.06 0  0.5 0.06 0  0.51 0.06 0  0.52 0.06 0  0.53 0.06 0  0.54 0.06 0  0.55 0.06 0  0.5600000000000001 0.06 0  0.57 0.06 0  0.58 0.06 0  0.59 0.06 0  0.6 0.06 0  0.61 0.06 0  0.62 0.06 0  0.63 0.06 0  0.64 0.06 0  0.65 0.06 0  0.66 0.06 0  0.67 0.06 0  0.68 0.06 0  0.6899999999999999 0.06 0  0.7 0.06 0  0.71 0.06 0  0.72 0.06 0  0.73 0.06 0  0.74 0.06 0  0.75 0.06 0  0.76 0.06 0  0.77 0.06 0  0.78 0.06 0  0.79 0.06 0  0.8 0.06 0  0.8100000000000001 0.06 0  0.82 0.06 0  0.83 0.06 0  0.84 0.06 0  0.85 0.06 0  0.86 0.06 0  0.87 0.06 0  0.88 0.06 0  0.89 0.06 0  0.9 0.06 0  0.91 0.06 0  0.92 0.06 0  0.93 0.06 0  0.9399999999999999 0.06 0  0.95 0.06 0  0.96 0.06 0  0.97 0.06 0  0.98 0.06 0  0.99 0.06 0  1 0.06 0  0 0.07000000000000001 0  0.01 0.07000000000000001 0  0.02 0.07000000000000001 0  0.03 0.07000000000000001 0  0.04 0.07000000000000001 0  0.05 0.07000000000000001 0  0.06 0.07000000000000001 0  0.07000000000000001 0.07000000000000001 0  0.08 0.07000000000000001 0  0.09 0.07000000000000001 0  0.1 0.07000000000000001 0  0.11 0.07000000000000001 0  0.12 0.07000000000000001 0  0.13 0.07000000000000001 0  0.14 0.07000000000000001 0  0.15 0.07000000000000001 0  0.16 0.07000000000000001 0  0.17 0.0700
[...]
<PointData  Scalars="f_17"> 
<DataArray  type="Float64"  Name="f_17"  format="ascii">0.0000000000000000e+00  5.0000000000000000e+01  5.0000000000000000e+01  5.0000000000000000e+01  5.0000000000000000e+01  5.0000000000000000e+01  5.0000000000000000e+01  5.0000000000000000e+01  5.0000000000000000e+01  5.0000000000000000e+01  5.0000000000000000e+01  5.0000000000000000e+01  5.0000000000000000e+01  5.0000000000000000e+01  5.0000000000000000e+01  5.0000000000000000e+01  5.0000000000000000e+01  5.0000000000000000e+01  5.0000000000000000e+01  5.0000000000000000e+01  5.0000000000000000e+01  5.0000000000000000e+01  5.0000000000000000e+01  5.0000000000000000e+01  5.0000000000000000e+01  5.0000000000000000e+01  5.0000000000000000e+01  5.0000000000000000e+01  5.0000000000000000e+01  5.0000000000000000e+01  5.0000000000000000e+01  5.0000000000000000e+01  5.0000000000000000e+01  5.0000000000000000e+01  5.0000000000000000e+01  5.0000000000000000e+01  5.0000000000000000e+01  5.0000000000000000e+01  5.0000000000000000e+01  5.0000000000000000e+01  5.0000000000000000e+01  5.0000000000000000e+01  5.0000000000000000e+01  5.0000000000000000e+01  5.0000000000000000e+01  5.0000000000000000e+01  5.0000000000000000e+01  5.0000000000000000e+01  5.0000000000000000e+01  5.0000000000000000e+01  5.0000000000000000e+01  5.0000000000000000e+01  5.0000000000000000e+01  5.0000000000000000e+01  5.0000000000000000e+01  5.0000000000000000e+01  5.0000000000000000e+01  5.0000000000000000e+01  5.0000000000000000e+01  5.0000000000000000e+01  5.0000000000000000e+01  5.0000000000000000e+01  5.0000000000000000e+01  5.0000000000000000e+01  5.0000000000000000e+01  5.0000000000000000e+01  5.0000000000000000e+01  5.0000000000000000e+01  5.0000000000000000e+01  5.0000000000000000e+01  5.0000000000000000e+01  5.0000000000000000e+01  5.0000000000000000e+01  5.0000000000000000e+01  5.0000000000000000e+01  5.0000000000000000e+01  5.0000000000000000e+01  5.0000000000000000e+01  5.0000000000000000e+01  5.0000000000000000e+01  5.0000000000000000e+01  5.0000000000000000e+01  5.0000000000000000e+01  5.0000000000000000e+01  5.0000000000000000e+01  5.0000000000000000e+01  5.0000000000000000e+01  5.0000000000000000e+01  5.0000000000000000e+01  5.0000000000000000e+01  5.0000000000000000e+01  5.0000000000000000e+01  5.0000000000000000e+01  5.0000000000000000e+01  5.0000000000000000e+01  5.0000000000000000e+01  5.0000000000000000e+01  5.0000000000000000e+01  5.0000000000000000e+01  5.0000000000000000e+01  0.0000000000000000e+00  0.0000000000000000e+00  2.4951821885437123e+01  3.5157354463794306e+01  3.9616116919239637e+01  4.2010617122468844e+01  4.3477473876005071e+01  4.4456739358572065e+01  4.5150166575516074e+01  4.5662369516365203e+01  4.6052770872397822e+01  4.6357554899524771e+01  4.6599991910836749e+01  4.6795719452642231e+01  4.6955632013427014e+01  4.7087551817731899e+01  4.7197240256787758e+01  4.7289034415380200e+01  4.7366261216693239e+01  4.7431514766907718e+01  4.7486846841959505e+01  4.7533900675244148e+01  4.7574006814555979e+01  4.7608253043664284e+01  4.7637536219703158e+01  4.7662601275947544e+01  4.7684070968238210e+01  4.7702468847027490e+01  4.7718237204141381e+01  4.7731751244886716e+01  4.7743330391688772e+01  4.7753247383955802e+01  4.7761735667275914e+01  4.7768995441618230e+01  4.7775198648394607e+01  4.7780493110190179e+01  4.7785005987918524e+01  4.7788846683385586e+01  4.7792109287440162e+01  4.7794874652685742e+01  4.7797212153425214e+01  4.7799181182881568e+01  4.7800832427866752e+01  4.7802208953300521e+01  4.7803347122804098e+01  4.7804277376640314e+01  4.7805024884253640e+01  4.7805610085369096e+01  4.7806049130865070e+01  4.7806354232318590e+01  4.7806533927122622e+01  4.7806593264319616e+01  4.7806533914709121e+01  4.7806354207320766e+01  4.7806049092941436e+01  4.7805610034007927e+01  4.7805024818773717e+01  4.7804277296191842e+01  4.7803347026370517e+01  4.7802208839700569e+01  4.7800832295757473e+01  4.7799181030762256e+01  4.7797211979642654e+01  4.7794874455440564e+01  4.7792109064794900e+01  4.7788846433274287e+01  4.7785005708158614e+01  4.7780492798496063e+01  4.7775198302393370e+01  4.7768995058867795e+01  4.7761735245285429e+01  4.7753246920208525e+01  4.7743329883666398e+01  4.7731750690096575e+01  4.7718236600145140e+01  4.7702468191471368e+01  4.7684070258884518e+01  4.7662600510706888e+01  4.7637535396667133e+01  4.7608252161137770e+01  4.7574005871088453e+01  4.7533899669659128e+01  4.7486845773382484e+01  4.7431513634790036e+01  4.7366260020832257e+01  4.7289033155934817e+01  4.7197238934287633e+01  4.7087550433080096e+01  4.6955630567894964e+01  4.6795717947855088e+01  4.6599990348747539e+01  4.6357553282375861e+01  4.6052769202664543e+01  4.5662367796675468e+01  4.5150164808531372e+01  4.4456737546797434e+01  4.3477472021441677e+01  4.2010615225841683e+01  3.9616114977803178e+01  3.5157352463161011e+01  2.4951819759914788e+01  0.0000000000000000e+00  0.0000000000000000e+00  1.4650227671080009e+01  2.4807877485333478e+01  3.0997146018453659e+01  3.4859304048872119e+01  3.7410678090205771e+01  3.9186821892997962e+01  4.0476745219990754e+01  4.1445245889409108e+01  4.2191695346979586e+01  4.2779066640789210e+01  4.3249005398578291e+01  4.3630071665116120e+01  4.3942468310603473e+01  4.4200871873839127e+01  4.4416192109112735e+01  4.4596702288186250e+01  4.4748786678282876e+01  4.4877447731296449e+01  4.4986658201731537e+01  4.5079610674421474e+01  4.5158897693800583e+01  4.5226643996121588e+01  4.5284605078051399e+01  4.5334241710785072e+01  4.5376777003906760e+01  4.5413240632670409e+01  4.5444503500298850e+01  4.5471305187284322e+01  4.5494275900066128e+01  4.5513954180452259e+01  4.5530801315053161e+01  4.5545213151247346e+01  4.5557529856152733e+01  4.5568044029580967e+01  4.5577007488439037e+01  4.5584636969741879e+01  4.5591118946089900e+01  4.5596613706720497e+01  4.5601258825846493e+01  4.5605172115613861e+01  4.5608454141932739e+01  4.5611190366378878e+01  4.5613452965377910e+01  4.5615302368258355e+01  4.5616788547937780e+01  4.5617952091582787e+01  4.5618825073227896e+01  4.5619431745808399e+01  4.5619789066149110e+01  4.5619907063009798e+01  4.5619789055176618e+01  4.5619431723707990e+01  4.5618825039688993e+01  4.5617952046140005e+01  4.5616788489971427e+01  4.5615302296995097e+01  4.5613452879892442e+01  4.5611190265595738e+01  4.5608454024628685e+01  4.5605171980421403e+01  4.5601258671258698e+01  4.5596613531096494e+01  4.5591118747662129e+01  4.5584636746624994e+01  4.5577007238640235e+01  4.5568043751012624e+01  4.5557529546646741e+01  4.5545212808571385e+01  4.5530800936929310e+01  4.5513953764577828e+01  4.5494275444135731e+01  4.5471304689014211e+01  4.5444502957452883e+01  4.5413240043086894e+01  4.5376776365526297e+01  4.5334241021678721e+01  4.5284604336448993e+01  4.5226643200438744e+01  4.5158896842664547e+01  4.5079609766694382e+01  4.4986657236531229e+01  4.4877446708012378e+01  4.4748785596587560e+01  4.4596701148040388e+01  4.4416190910763213e+01  4.4200870617808363e+01  4.3942466997668177e+01  4.3630070296274326e+01  4.3249003975001280e+01  4.2779065163754886e+01  4.2191693817780518e+01  4.1445244309225806e+01  4.0476743589710644e+01  3.9186820212941619e+01  3.7410676359681730e+01  3.4859302265395442e+01  3.0997144176370682e+01  2.4807875574465019e+01  1.4650225688506033e+01  0.0000000000000000e+00  0.0000000000000000e+00  1.0095994552525383e+01  1.8427961757260537e+01  2.4569934709819133e+01  2.8944643679020018e+01  3.2084283510466499e+01  3.4387530961929379e+01  3.6118623460326347e+01  3.7449035749820780e+01  3.8491422302631754e+01  3.9321538577602695e+01  3.9991663276180709e+01  4.0538796399745458e+01  4.0989745104067644e+01  4.1364348893359647e+01  4.1677573734089009e+01  4.1940903725600663e+01  4.2163286555807034e+01  4.2351789136289696e+01  4.2512060971187353e+01  4.2648667423927407e+01  4.2765333310140996e+01  4.2865123618901009e+01  4.2950579452419660e+01  4.3023821599605391e+01  4.3086630397299565e+01  4.3140507998445841e+01  4.3186727432329313e+01  4.3226371638520526e+01  4.3260364809727790e+01  4.3289497776030416e+01  4.3314448728772128e+01  4.3335800266215131e+01  4.3354053510475801e+01  4.3369639872550181e+01  4.3382930912836827e+01  4.3394246646790528e+01  4.3403862570873279e+01  4.3412015626808099e+01  4.3418909277936230e+01  4.3424717837030983e+01  4.3429590157876426e+01  4.3433652781512201e+01  4.3437012610958483e+01  4.3439759174468854e+01  4.3441966526150132e+01  4.3443694823553074e+01  4.3444991614126053e+01  4.3445892855875790e+01  4.3446423691922156e+01  4.3446598993639782e+01  4.3446423682558809e+01  4.3445892837008167e+01  4.3444991585472707e+01  4.3443694784691807e+01  4.3441966476518530e+01  4.3439759113364886e+01  4.3437012537541072e+01  4.3433652694802866e+01  4.3429590056761185e+01  4.3424717720263061e+01  4.3418909144139946e+01  4.3412015474483432e+01  4.3403862398402367e+01  4.3394246452445145e+01  4.3382930694787731e+01  4.3369639628878105e+01  4.3354053239184424e+01  4.3335799965245947e+01  4.3314448396021078e+01  4.3289497409366717e+01  4.3260364407014123e+01  4.3226371197635210e+01  4.3186726951189577e+01  4.3140507475032074e+01  4.3086629829680426e+01  4.3023820985962658e+01  4.2950578791072772e+01  4.2865122908330314e+01  4.2765332549009173e+01  4.2648666611097795e+01  4.2512060105738868e+01  4.2351788217526853e+01  4.2163285583263665e+01  4.1940902699036897e+01  4.1677572653479906e+01  4.1364347758872931e+01  4.0989743916030136e+01  4.0538795158594645e+01  3.9991661982399023e+01  3.9321537231629641e+01  3.8491420904748310e+01  3.7449034299995361e+01  3.6118621958008575e+01  3.4387529405768682e+01  3.2084281897929088e+01  2.8944642005910755e+01  2.4569932969924789e+01  1.8427959943144767e+01  1.0095992658478110e+01  0.0000000000000000e+00  0.0000000000000000e+00  7.6069031290868221e+00  1.4376912645474803e+01  1.9912614677681059e+01  2.4240895161105914e+01  2.7575701494160327e+01  3.0150480763310803e+01  3.2157737012686098e+01  3.3741744633588830e+01  3.5007243429045594e+01  3.6029899357730393e+01  3.6864764642610560e+01  3.7552390804397852e+01  3.8123078449266657e+01  3.8599802897323244e+01  3.9000234586917969e+01  3.9338147322644708e+01  3.9624411772980814e+01  3.9867705696152818e+01  4.0075028552080461e+01  4.0252079359348805e+01  4.0403537721848579e+01  4.0533275421682916e+01  4.0644517607151080e+01  4.0739966954036554e+01  4.0821900318179559e+01  4.0892244728996026e+01  4.0952637707667989e+01  4.1004475574114593e+01  4.1048952463428947e+01  4.1087092090973265e+01  4.1119773808161547e+01  4.1147754124863205e+01  4.1171684602378846e+01  4.1192126817172046e+01  4.1209564941653063e+01  4.1224416371204015e+01  4.1237040736862795e+01  4.1247747573768251e+01  4.1256802861575430e+01  4.1264434610847523e+01  4.1270837636136655e+01  4.1276177630008505e+01  4.1280594631053994e+01  4.1284205961777623e+01  4.1287108698233105e+01  4.1289381721685601e+01  4.1291087392862472e+01  4.1292272881080464e+01  4.1292971173364663e+01  4.1293201782320168e+01  4.1292971165761102e+01  4.1292272865746057e+01  4.1291087369542545e+01  4.1289381689998017e+01  4.1287108657668171e+01  4.1284205911698365e+01  4.1280594570696245e+01  4.1276177558481564e+01  4.1270837552424481e+01  4.1264434513810649e+01  4.1256802749953586e+01  4.1247747446183986e+01  4.1237040591826855e+01  4.1224416207121195e+01  4.1209564756830467e+01  4.1192126609828655e+01  4.1171684370656678e+01  4.1147753866840979e+01  4.1119773521869568e+01  4.1087091774410496e+01  4.1048952114581496e+01  4.1004475190976159e+01  4.0952637288261052e+01  4.0892244271394304e+01  4.0821899820530810e+01  4.0739966414585247e+01  4.0644517024260331e+01  4.0533274793854929e+01  4.0403537047742979e+01  4.0252078637797538e+01  4.0075027782098545e+01  3.9867704876943634e+01  3.9624410903934681e+01  3.9338146403329617e+01  3.9000233617060864e+01  3.8599801876779566e+01  3.8123077377977140e+01  3.7552389682329363e+01  3.6864763469677840e+01  3.6029898133695248e+01  3.5007242153388113e+01  3.3741743305343839e+01  3.2157735630236601e+01  3.0150479324133148e+01  2.7575699994525468e+01  2.4240893595785849e+01  1.9912613039802853e+01  1.4376910926683777e+01  7.6069013194490829e+00  0.0000000000000000e+00  0.0000000000000000e+00  6.0466149088256378e+00  1.1638963397010375e+01  1.6493828534062569e+01  2.0535223644765740e+01  2.3824732488372149e+01  2.6479415597438340e+01  2.8621423962548388e+01  3.0357168053064452e+01  3.1772558903385601e+01  3.2934712097326432e+01  3.3895435352123414e+01  3.4694673023631616e+01  3.5363361325177479e+01  3.5925637441513118e+01  3.6400498945164280e+01  3.6803036289230988e+01  3.7145346509944666e+01  3.7437212821766629e+01  3.7686613198490555e+01  3.7900103916512272e+01  3.8083111274186727e+01  3.8240155448650725e+01  3.8375023824062247e+01  3.8490906395243528e+01  3.8590502470949730e+01  3.8676105476306766e+01  3.8749670904611847e+01  3.8812871198211333e+01  3.8867140408900816e+01  3.8913710803604204e+01  3.8953643072888276e+01  3.8987851419919096e+01  3.9017124521376992e+01  3.9042143134938406e+01  3.9063494962367486e+01  3.9081687250058302e+01  3.9097157510512091e+01  3.9110282671696780e+01  3.9121386901299829e+01  3.9130748305640942e+01  3.9138604665517455e+01  3.9145158341280897e+01  3.9150580455292797e+01  3.9155014440268644e+01  3.9158579025894390e+01  3.9161370722700170e+01  3.9163465850892763e+01  3.9164922152198308e+01  3.9165780014364273e+01  3.9166063330500855e+01  3.9165780008653016e+01  3.9164922140660835e+01  3.9163465833299007e+01  3.9161370698704609e+01  3.9158578995035377e+01  3.9155014401968018e+01  3.9150580408855298e+01  3.9145158285894077e+01  3.9138604600251746e+01  3.9130748229450447e+01  3.9121386813023605e+01  3.9110282570061564e+01  3.9097157394135742e+01  3.9081687117454699e+01  3.9063494811953049e+01  3.9042142965040199e+01  3.9017124330242567e+01  3.8987851205728447e+01  3.8953642833767297e+01  3.8913710537640355e+01  3.8867140114160300e+01  3.8812870872758062e+01  3.8749670546527383e+01  3.8676105083711391e+01  3.8590502042023978e+01  3.8490905928249425e+01  3.8375023317363947e+01  3.8240154900733415e+01  3.8083110683672999e+01  3.7900103282175237e+01  3.7686612519261978e+01  3.7437212096739628e+01  3.7145345738369031e+01  3.6803035470499928e+01  3.6400498078791038e+01  3.5925636527095541e+01  3.5363360362348487e+01  3.4694672011993475e+01  3.3895434291162964e+01  3.2934710986307977e+01  3.1772557741218204e+01  3.0357166838139339e+01  2.8621422692544055e+01  2.6479414269094384e+01  2.3824731097242580e+01  2.0535222184979197e+01  1.6493826998120511e+01  1.1638961775567935e+01  6.0466131901450968e+00  0.0000000000000000e+00  0.0000000000000000e+00  4.9753473029884905e+00  9.6790985999763350e+00  1.3915704928362230e+01  1.7595252016992525e+01  2.0715647201772718e+01  2.3326407196079028e+01  2.5497565307292216e+01  2.7300846580183070e+01  2.8800915643519382e+01  3.0052585669208490e+01  3.1100901698462245e+01  3.1982342013539732e+01  3.2726286285311048e+01  3.3356393769285035e+01  3.3891773448515885e+01  3.4347931686641274e+01  3.4737521946901452e+01  3.5070931460333348e+01  3.5356738526810048e+01  3.5602069097708885e+01  3.5812875639290496e+01  3.5994156208454775e+01  3.6150127514164176e+01  3.6284362470048521e+01  3.6399900233078043e+01  3.6499334816518747e+01  3.6584886924982811e+01  3.6658462572762268e+01  3.6721701226060773e+01  3.6776015588484775e+01  3.6822624677132069e+01  3.6862581476475704e+01  3.6896796181207300e+01  3.6926055826618970e+01  3.6951040940571509e+01  3.6972339723113450e+01  3.6990460159749738e+01  3.7005840395707970e+01  3.7018857636392966e+01  3.7029835789812786e+01  3.7039052027245681e+01  3.7046742406597389e+01  3.7053106677086262e+01  3.7058312362763878e+01  3.7062498204924111e+01  3.7065777028858221e+01  3.7068238088052986e+01  3.7069948928297400e+01  3.7070956804858390e+01  3.7071289677577298e+01  3.7070956801152931e+01  3.7069948920782785e+01  3.7068238076521524e+01  3.7065777012997387e+01  3.7062498184315409e+01  3.7058312336881812e+01  3.7053106645296680e+01  3.7046742368156515e+01  3.7039051981298933e+01  3.7029835735394322e+01  3.7018857572425510e+01  3.7005840321004129e+01  3.6990460073013907e+01  3.6972339622945206e+01  3.6951040825470400e+01  3.6926055694991298e+01  3.6896796031374450e+01  3.6862581306684525e+01  3.6822624485567140e+01  3.6776015373283023e+01  3.6721700985327480e+01  3.6658462304589044e+01  3.6584886627466958e+01  3.6499334487783685e+01  3.6399899871294210e+01  3.6284362073454389e+01  3.6150127081086417e+01  3.5994155737326892e+01  3.5812875128668949e+01  3.5602068546285537e+01  3.5356737933419879e+01  3.5070930823956047e+01  3.4737521266655776e+01  3.4347930961770096e+01  3.3891772678360987e+01  3.3356392953249298e+01  3.2726285422806590e+01  3.1982341103919623e+01  3.1100900740933824e+01  3.0052584662725803e+01  2.8800914586652663e+01  2.7300845470963331e+01  2.5497564143031074e+01  2.3326405973165809e+01  2.0715645915456314e+01  1.7595250661156285e+01  1.3915703495287591e+01  9.6790970800497984e+00  4.9753456842534201e+00  0.0000000000000000e+00  0.0000000000000000e+00  4.1916038081256488e+00  8.2088206928623393e+00  1.1914772737105212e+01  1.5229494261732189e+01  1.8127561261471168e+01  2.0622933596370927e+01  2.2751761915012601e+01  2.4559080602755593e+01  2.6090581059871095e+01  2.7388409020026927e+01  2.8489512061050643e+01  2.9425378765740117e+01  3.0222435400143219e+01  3.0902690308258848e+01  3.1484419372426157e+01  3.1982799983908869e+01  3.2410460208616506e+01  3.2777938306475136e+01  3.3094060035446667e+01  3.3366245372957977e+01  3.3600756728152234e+01  3.3802899588334320e+01  3.3977184906426885e+01  3.4127460878097850e+01  3.4257020273924340e+01  3.4368688242173789e+01  3.4464894478556836e+01  3.4547732843518695e+01  3.4619010861693461e+01  3.4680291029705295e+01  3.4732925459418070e+01  3.4778085070714852e+01  3.4816784302208703e+01  3.4849902115135066e+01  3.4878199913463519e+01  3.4902336882961798e+01  3.4922883156539648e+01  3.4940331137249927e+01  3.4955105249608074e+01  3.4967570341116527e+01  3.4978038916496111e+01  3.4986777355119898e+01  3.4994011235960322e+01  3.4999929872752979e+01  3.5004690144089579e+01  3.5008419687996224e+01  3.5011219517626749e+01  3.5013166103502492e+01  3.5014312957870757e+01  3.5014691747894659e+01  3.5014312956265350e+01  3.5013166100198163e+01  3.5011219512435851e+01  3.5008419680635818e+01  3.5004690134179704e+01  3.4999929859814607e+01  3.4994011219412869e+01  3.4986777334279097e+01  3.4978038890571398e+01  3.4967570309209165e+01  3.4955105210709540e+01  3.4940331090241507e+01  3.4922883100192649e+01  3.4902336815939449e+01  3.4878199834324107e+01  3.4849902022337062e+01  3.4816784194117723e+01  3.4778084945612754e+01  3.4732925315514080e+01  3.4680290865149665e+01  3.4619010674592822e+01  3.4547732631953579e+01  3.4464894240600835e+01  3.4368687975914071e+01  3.4257019977482813e+01  3.4127460549652724e+01  3.3977184544233587e+01  3.3802899190745080e+01  3.3600756293633033e+01  3.3366244900102132e+01  3.3094059522983756e+01  3.2777937753273321e+01  3.2410459613677901e+01  3.1982799346355357e+01  3.1484418691474701e+01  3.0902689583184433e+01  3.0222434630227575e+01  2.9425377950204624e+01  2.8489511198971730e+01  2.7388408110232277e+01  2.6090580100815504e+01  2.4559079592375987e+01  2.2751760850563098e+01  2.0622932474240088e+01  1.8127560076985343e+01  1.5229493008947321e+01  1.1914771408582272e+01  8.2088192794119816e+00  4.1916022985035477e+00  0.0000000000000000e+00  0.0000000000000000e+00  3.5910116887644992e+00  7.0638136108467435e+00  1.0320277968346636e+01  1.3294633505428374e+01  1.5955255536545639e+01  1.8298691284026365e+01  2.0340626844140047e+01  2.2107400402594347e+01  2.3629665195693690e+01  2.4938353693925830e+01  2.6062454315577185e+01  2.7028001220530214e+01  2.7857788053369287e+01  2.8571470457556870e+01  2.9185850597379719e+01  2.9715225901587448e+01  3.0171739983590744e+01  3.0565706323602715e+01  3.0905893352938694e+01  3.1199768985342221e+01  3.1453707138633487e