<?xml version="1.0"?>
<VTKFile type="UnstructuredGrid"  version="0.1"  >
<UnstructuredGrid>
<Piece  NumberOfPoints="10201" NumberOfCells="20000">
<Points>
<DataArray  type="Float64"  NumberOfComponents="3"  format="ascii">0 0 0  0.01 0 0  0.02 0 0  0.03 0 0  0.04 0 0  0.05 0 0  0.06 0 0  0.07000000000000001 0 0  0.08 0 0  0.09 0 0  0.1 0 0  0.11 0 0  0.12 0 0  0.13 0 0  0.14 0 0  0.15 0 0  0.16 0 0  0.17 0 0  0.18 0 0  0.19 0 0  0.2 0 0  0.21 0 0  0.22 0 0  0.23 0 0  0.24 0 0  0.25 0 0  0.26 0 0  0.27 0 0  0.28 0 0  0.29 0 0  0.3 0 0  0.31 0 0  0.32 0 0  0.33 0 0  0.34 0 0  0.35 0 0  0.36 0 0  0.37 0 0  0.38 0 0  0.39 0 0  0.4 0 0  0.41 0 0  0.42 0 0  0.43 0 0  0.44 0 0  0.45 0 0  0.46 0 0  0.47 0 0  0.48 0 0  0.49 0 0  0.5 0 0  0.51 0 0  0.52 0 0  0.53 0 0  0.54 0 0  0.55 0 0  0.5600000000000001 0 0  0.57 0 0  0.58 0 0  0.59 0 0  0.6 0 0  0.61 0 0  0.62 0 0  0.63 0 0  0.64 0 0  0.65 0 0  0.66 0 0  0.67 0 0  0.68 0 0  0.6899999999999999 0 0  0.7 0 0  0.71 0 0  0.72 0 0  0.73 0 0  0.74 0 0  0.75 0 0  0.76 0 0  0.77 0 0  0.78 0 0  0.79 0 0  0.8 0 0  0.8100000000000001 0 0  0.82 0 0  0.83 0 0  0.84 0 0  0.85 0 0  0.86 0 0  0.87 0 0  0.88 0 0  0.89 0 0  0.9 0 0  0.91 0 0  0.92 0 0  0.93 0 0  0.9399999999999999 0 0  0.95 0 0  0.96 0 0  0.97 0 0  0.98 0 0  0.99 0 0  1 0 0  0 0.01 0  0.01 0.01 0  0.02 0.01 0  0.03 0.01 0  0.04 0.01 0  0.05 0.01 0  0.06 0.01 0  0.07000000000000001 0.01 0  0.08 0.01 0  0.09 0.01 0  0.1 0.01 0  0.11 0.01 0  0.12 0.01 0  0.13 0.01 0  0.14 0.01 0  0.15 0.01 0  0.16 0.01 0  0.17 0.01 0  0.18 0.01 0  0.19 0.01 0  0.2 0.01 0  0.21 0.01 0  0.22 0.01 0  0.23 0.01 0  0.24 0.01 0  0.25 0.01 0  0.26 0.01 0  0.27 0.01 0  0.28 0.01 0  0.29 0.01 0  0.3 0.01 0  0.31 0.01 0  0.32 0.01 0  0.33 0.01 0  0.34 0.01 0  0.35 0.01 0  0.36 0.01 0  0.37 0.01 0  0.38 0.01 0  0.39 0.01 0  0.4 0.01 0  0.41 0.01 0  0.42 0.01 0  0.43 0.01 0  0.44 0.01 0  0.45 0.01 0  0.46 0.01 0  0.47 0.01 0  0.48 0.01 0  0.49 0.01 0  0.5 0.01 0  0.51 0.01 0  0.52 0.01 0  0.53 0.01 0  0.54 0.01 0  0.55 0.01 0  0.5600000000000001 0.01 0  0.57 0.01 0  0.58 0.01 0  0.59 0.01 0  0.6 0.01 0  0.61 0.01 0  0.62 0.01 0  0.63 0.01 0  0.64 0.01 0  0.65 0.01 0  0.66 0.01 0  0.67 0.01 0  0.68 0.01 0  0.6899999999999999 0.01 0  0.7 0.01 0  0.71 0.01 0  0.72 0.01 0  0.73 0.01 0  0.74 0.01 0  0.75 0.01 0  0.76 0.01 0  0.77 0.01 0  0.78 0.01 0  0.79 0.01 0  0.8 0.01 0  0.8100000000000001 0.01 0  0.82 0.01 0  0.83 0.01 0  0.84 0.01 0  0.85 0.01 0  0.86 0.01 0  0.87 0.01 0  0.88 0.01 0  0.89 0.01 0  0.9 0.01 0  0.91 0.01 0  0.92 0.01 0  0.93 0.01 0  0.9399999999999999 0.01 0  0.95 0.01 0  0.96 0.01 0  0.97 0.01 0  0.98 0.01 0  0.99 0.01 0  1 0.01 0  0 0.02 0  0.01 0.02 0  0.02 0.02 0  0.03 0.02 0  0.04 0.02 0  0.05 0.02 0  0.06 0.02 0  0.07000000000000001 0.02 0  0.08 0.02 0  0.09 0.02 0  0.1 0.02 0  0.11 0.02 0  0.12 0.02 0  0.13 0.02 0  0.14 0.02 0  0.15 0.02 0  0.16 0.02 0  0.17 0.02 0  0.18 0.02 0  0.19 0.02 0  0.2 0.02 0  0.21 0.02 0  0.22 0.02 0  0.23 0.02 0  0.24 0.02 0  0.25 0.02 0  0.26 0.02 0  0.27 0.02 0  0.28 0.02 0  0.29 0.02 0  0.3 0.02 0  0.31 0.02 0  0.32 0.02 0  0.33 0.02 0  0.34 0.02 0  0.35 0.02 0  0.36 0.02 0  0.37 0.02 0  0.38 0.02 0  0.39 0.02 0  0.4 0.02 0  0.41 0.02 0  0.42 0.02 0  0.43 0.02 0  0.44 0.02 0  0.45 0.02 0  0.46 0.02 0  0.47 0.02 0  0.48 0.02 0  0.49 0.02 0  0.5 0.02 0  0.51 0.02 0  0.52 0.02 0  0.53 0.02 0  0.54 0.02 0  0.55 0.02 0  0.5600000000000001 0.02 0  0.57 0.02 0  0.58 0.02 0  0.59 0.02 0  0.6 0.02 0  0.61 0.02 0  0.62 0.02 0  0.63 0.02 0  0.64 0.02 0  0.65 0.02 0  0.66 0.02 0  0.67 0.02 0  0.68 0.02 0  0.6899999999999999 0.02 0  0.7 0.02 0  0.71 0.02 0  0.72 0.02 0  0.73 0.02 0  0.74 0.02 0  0.75 0.02 0  0.76 0.02 0  0.77 0.02 0  0.78 0.02 0  0.79 0.02 0  0.8 0.02 0  0.8100000000000001 0.02 0  0.82 0.02 0  0.83 0.02 0  0.84 0.02 0  0.85 0.02 0  0.86 0.02 0  0.87 0.02 0  0.88 0.02 0  0.89 0.02 0  0.9 0.02 0  0.91 0.02 0  0.92 0.02 0  0.93 0.02 0  0.9399999999999999 0.02 0  0.95 0.02 0  0.96 0.02 0  0.97 0.02 0  0.98 0.02 0  0.99 0.02 0  1 0.02 0  0 0.03 0  0.01 0.03 0  0.02 0.03 0  0.03 0.03 0  0.04 0.03 0  0.05 0.03 0  0.06 0.03 0  0.07000000000000001 0.03 0  0.08 0.03 0  0.09 0.03 0  0.1 0.03 0  0.11 0.03 0  0.12 0.03 0  0.13 0.03 0  0.14 0.03 0  0.15 0.03 0  0.16 0.03 0  0.17 0.03 0  0.18 0.03 0  0.19 0.03 0  0.2 0.03 0  0.21 0.03 0  0.22 0.03 0  0.23 0.03 0  0.24 0.03 0  0.25 0.03 0  0.26 0.03 0  0.27 0.03 0  0.28 0.03 0  0.29 0.03 0  0.3 0.03 0  0.31 0.03 0  0.32 0.03 0  0.33 0.03 0  0.34 0.03 0  0.35 0.03 0  0.36 0.03 0  0.37 0.03 0  0.38 0.03 0  0.39 0.03 0  0.4 0.03 0  0.41 0.03 0  0.42 0.03 0  0.43 0.03 0  0.44 0.03 0  0.45 0.03 0  0.46 0.03 0  0.47 0.03 0  0.48 0.03 0  0.49 0.03 0  0.5 0.03 0  0.51 0.03 0  0.52 0.03 0  0.53 0.03 0  0.54 0.03 0  0.55 0.03 0  0.5600000000000001 0.03 0  0.57 0.03 0  0.58 0.03 0  0.59 0.03 0  0.6 0.03 0  0.61 0.03 0  0.62 0.03 0  0.63 0.03 0  0.64 0.03 0  0.65 0.03 0  0.66 0.03 0  0.67 0.03 0  0.68 0.03 0  0.6899999999999999 0.03 0  0.7 0.03 0  0.71 0.03 0  0.72 0.03 0  0.73 0.03 0  0.74 0.03 0  0.75 0.03 0  0.76 0.03 0  0.77 0.03 0  0.78 0.03 0  0.79 0.03 0  0.8 0.03 0  0.8100000000000001 0.03 0  0.82 0.03 0  0.83 0.03 0  0.84 0.03 0  0.85 0.03 0  0.86 0.03 0  0.87 0.03 0  0.88 0.03 0  0.89 0.03 0  0.9 0.03 0  0.91 0.03 0  0.92 0.03 0  0.93 0.03 0  0.9399999999999999 0.03 0  0.95 0.03 0  0.96 0.03 0  0.97 0.03 0  0.98 0.03 0  0.99 0.03 0  1 0.03 0  0 0.04 0  0.01 0.04 0  0.02 0.04 0  0.03 0.04 0  0.04 0.04 0  0.05 0.04 0  0.06 0.04 0  0.07000000000000001 0.04 0  0.08 0.04 0  0.09 0.04 0  0.1 0.04 0  0.11 0.04 0  0.12 0.04 0  0.13 0.04 0  0.14 0.04 0  0.15 0.04 0  0.16 0.04 0  0.17 0.04 0  0.18 0.04 0  0.19 0.04 0  0.2 0.04 0  0.21 0.04 0  0.22 0.04 0  0.23 0.04 0  0.24 0.04 0  0.25 0.04 0  0.26 0.04 0  0.27 0.04 0  0.28 0.04 0  0.29 0.04 0  0.3 0.04 0  0.31 0.04 0  0.32 0.04 0  0.33 0.04 0  0.34 0.04 0  0.35 0.04 0  0.36 0.04 0  0.37 0.04 0  0.38 0.04 0  0.39 0.04 0  0.4 0.04 0  0.41 0.04 0  0.42 0.04 0  0.43 0.04 0  0.44 0.04 0  0.45 0.04 0  0.46 0.04 0  0.47 0.04 0  0.48 0.04 0  0.49 0.04 0  0.5 0.04 0  0.51 0.04 0  0.52 0.04 0  0.53 0.04 0  0.54 0.04 0  0.55 0.04 0  0.5600000000000001 0.04 0  0.57 0.04 0  0.58 0.04 0  0.59 0.04 0  0.6 0.04 0  0.61 0.04 0  0.62 0.04 0  0.63 0.04 0  0.64 0.04 0  0.65 0.04 0  0.66 0.04 0  0.67 0.04 0  0.68 0.04 0  0.6899999999999999 0.04 0  0.7 0.04 0  0.71 0.04 0  0.72 0.04 0  0.73 0.04 0  0.74 0.04 0  0.75 0.04 0  0.76 0.04 0  0.77 0.04 0  0.78 0.04 0  0.79 0.04 0  0.8 0.04 0  0.8100000000000001 0.04 0  0.82 0.04 0  0.83 0.04 0  0.84 0.04 0  0.85 0.04 0  0.86 0.04 0  0.87 0.04 0  0.88 0.04 0  0.89 0.04 0  0.9 0.04 0  0.91 0.04 0  0.92 0.04 0  0.93 0.04 0  0.9399999999999999 0.04 0  0.95 0.04 0  0.96 0.04 0  0.97 0.04 0  0.98 0.04 0  0.99 0.04 0  1 0.04 0  0 0.05 0  0.01 0.05 0  0.02 0.05 0  0.03 0.05 0  0.04 0.05 0  0.05 0.05 0  0.06 0.05 0  0.07000000000000001 0.05 0  0.08 0.05 0  0.09 0.05 0  0.1 0.05 0  0.11 0.05 0  0.12 0.05 0  0.13 0.05 0  0.14 0.05 0  0.15 0.05 0  0.16 0.05 0  0.17 0.05 0  0.18 0.05 0  0.19 0.05 0  0.2 0.05 0  0.21 0.05 0  0.22 0.05 0  0.23 0.05 0  0.24 0.05 0  0.25 0.05 0  0.26 0.05 0  0.27 0.05 0  0.28 0.05 0  0.29 0.05 0  0.3 0.05 0  0.31 0.05 0  0.32 0.05 0  0.33 0.05 0  0.34 0.05 0  0.35 0.05 0  0.36 0.05 0  0.37 0.05 0  0.38 0.05 0  0.39 0.05 0  0.4 0.05 0  0.41 0.05 0  0.42 0.05 0  0.43 0.05 0  0.44 0.05 0  0.45 0.05 0  0.46 0.05 0  0.47 0.05 0  0.48 0.05 0  0.49 0.05 0  0.5 0.05 0  0.51 0.05 0  0.52 0.05 0  0.53 0.05 0  0.54 0.05 0  0.55 0.05 0  0.5600000000000001 0.05 0  0.57 0.05 0  0.58 0.05 0  0.59 0.05 0  0.6 0.05 0  0.61 0.05 0  0.62 0.05 0  0.63 0.05 0  0.64 0.05 0  0.65 0.05 0  0.66 0.05 0  0.67 0.05 0  0.68 0.05 0  0.6899999999999999 0.05 0  0.7 0.05 0  0.71 0.05 0  0.72 0.05 0  0.73 0.05 0  0.74 0.05 0  0.75 0.05 0  0.76 0.05 0  0.77 0.05 0  0.78 0.05 0  0.79 0.05 0  0.8 0.05 0  0.8100000000000001 0.05 0  0.82 0.05 0  0.83 0.05 0  0.84 0.05 0  0.85 0.05 0  0.86 0.05 0  0.87 0.05 0  0.88 0.05 0  0.89 0.05 0  0.9 0.05 0  0.91 0.05 0  0.92 0.05 0  0.93 0.05 0  0.9399999999999999 0.05 0  0.95 0.05 0  0.96 0.05 0  0.97 0.05 0  0.98 0.05 0  0.99 0.05 0  1 0.05 0  0 0.06 0  0.01 0.06 0  0.02 0.06 0  0.03 0.06 0  0.04 0.06 0  0.05 0.06 0  0.06 0.06 0  0.07000000000000001 0.06 0  0.08 0.06 0  0.09 0.06 0  0.1 0.06 0  0.11 0.06 0  0.12 0.06 0  0.13 0.06 0  0.14 0.06 0  0.15 0.06 0  0.16 0.06 0  0.17 0.06 0  0.18 0.06 0  0.19 0.06 0  0.2 0.06 0  0.21 0.06 0  0.22 0.06 0  0.23 0.06 0  0.24 0.06 0  0.25 0.06 0  0.26 0.06 0  0.27 0.06 0  0.28 0.06 0  0.29 0.06 0  0.3 0.06 0  0.31 0.06 0  0.32 0.06 0  0.33 0.06 0  0.34 0.06 0  0.35 0.06 0  0.36 0.06 0  0.37 0.06 0  0.38 0.06 0  0.39 0.06 0  0.4 0.06 0  0.41 0.06 0  0.42 0.06 0  0.43 0.06 0  0.44 0.06 0  0.45 0.06 0  0.46 0.06 0  0.47 0.06 0  0.48 0.06 0  0.49 0.06 0  0.5 0.06 0  0.51 0.06 0  0.52 0.06 0  0.53 0.06 0  0.54 0.06 0  0.55 0.06 0  0.5600000000000001 0.06 0  0.57 0.06 0  0.58 0.06 0  0.59 0.06 0  0.6 0.06 0  0.61 0.06 0  0.62 0.06 0  0.63 0.06 0  0.64 0.06 0  0.65 0.06 0  0.66 0.06 0  0.67 0.06 0  0.68 0.06 0  0.6899999999999999 0.06 0  0.7 0.06 0  0.71 0.06 0  0.72 0.06 0  0.73 0.06 0  0.74 0.06 0  0.75 0.06 0  0.76 0.06 0  0.77 0.06 0  0.78 0.06 0  0.79 0.06 0  0.8 0.06 0  0.8100000000000001 0.06 0  0.82 0.06 0  0.83 0.06 0  0.84 0.06 0  0.85 0.06 0  0.86 0.06 0  0.87 0.06 0  0.88 0.06 0  0.89 0.06 0  0.9 0.06 0  0.91 0.06 0  0.92 0.06 0  0.93 0.06 0  0.9399999999999999 0.06 0  0.95 0.06 0  0.96 0.06 0  0.97 0.06 0  0.98 0.06 0  0.99 0.06 0  1 0.06 0  0 0.07000000000000001 0  0.01 0.07000000000000001 0  0.02 0.07000000000000001 0  0.03 0.07000000000000001 0  0.04 0.07000000000000001 0  0.05 0.07000000000000001 0  0.06 0.07000000000000001 0  0.07000000000000001 0.07000000000000001 0  0.08 0.07000000000000001 0  0.09 0.07000000000000001 0  0.1 0.07000000000000001 0  0.11 0.07000000000000001 0  0.12 0.07000000000000001 0  0.13 0.07000000000000001 0  0.14 0.07000000000000001 0  0.15 0.07000000000000001 0  0.16 0.07000000000000001 0  0.17 0.0700
[...]
<PointData  Scalars="f_17"> 
<DataArray  type="Float64"  Name="f_17"  format="ascii">0.0000000000000000e+00  5.0000000000000000e+01  5.0000000000000000e+01  5.0000000000000000e+01  5.0000000000000000e+01  5.0000000000000000e+01  5.0000000000000000e+01  5.0000000000000000e+01  5.0000000000000000e+01  5.0000000000000000e+01  5.0000000000000000e+01  5.0000000000000000e+01  5.0000000000000000e+01  5.0000000000000000e+01  5.0000000000000000e+01  5.0000000000000000e+01  5.0000000000000000e+01  5.0000000000000000e+01  5.0000000000000000e+01  5.0000000000000000e+01  5.0000000000000000e+01  5.0000000000000000e+01  5.0000000000000000e+01  5.0000000000000000e+01  5.0000000000000000e+01  5.0000000000000000e+01  5.0000000000000000e+01  5.0000000000000000e+01  5.0000000000000000e+01  5.0000000000000000e+01  5.0000000000000000e+01  5.0000000000000000e+01  5.0000000000000000e+01  5.0000000000000000e+01  5.0000000000000000e+01  5.0000000000000000e+01  5.0000000000000000e+01  5.0000000000000000e+01  5.0000000000000000e+01  5.0000000000000000e+01  5.0000000000000000e+01  5.0000000000000000e+01  5.0000000000000000e+01  5.0000000000000000e+01  5.0000000000000000e+01  5.0000000000000000e+01  5.0000000000000000e+01  5.0000000000000000e+01  5.0000000000000000e+01  5.0000000000000000e+01  5.0000000000000000e+01  5.0000000000000000e+01  5.0000000000000000e+01  5.0000000000000000e+01  5.0000000000000000e+01  5.0000000000000000e+01  5.0000000000000000e+01  5.0000000000000000e+01  5.0000000000000000e+01  5.0000000000000000e+01  5.0000000000000000e+01  5.0000000000000000e+01  5.0000000000000000e+01  5.0000000000000000e+01  5.0000000000000000e+01  5.0000000000000000e+01  5.0000000000000000e+01  5.0000000000000000e+01  5.0000000000000000e+01  5.0000000000000000e+01  5.0000000000000000e+01  5.0000000000000000e+01  5.0000000000000000e+01  5.0000000000000000e+01  5.0000000000000000e+01  5.0000000000000000e+01  5.0000000000000000e+01  5.0000000000000000e+01  5.0000000000000000e+01  5.0000000000000000e+01  5.0000000000000000e+01  5.0000000000000000e+01  5.0000000000000000e+01  5.0000000000000000e+01  5.0000000000000000e+01  5.0000000000000000e+01  5.0000000000000000e+01  5.0000000000000000e+01  5.0000000000000000e+01  5.0000000000000000e+01  5.0000000000000000e+01  5.0000000000000000e+01  5.0000000000000000e+01  5.0000000000000000e+01  5.0000000000000000e+01  5.0000000000000000e+01  5.0000000000000000e+01  5.0000000000000000e+01  5.0000000000000000e+01  5.0000000000000000e+01  0.0000000000000000e+00  0.0000000000000000e+00  2.4972671100834365e+01  3.5199003074169269e+01  3.9678464112878608e+01  4.2093512659012511e+01  4.3580719196748426e+01  4.4580089059026015e+01  4.5293330212266490e+01  4.5825013723274445e+01  4.6234521758714401e+01  4.6558000699511247e+01  4.6818685851925594e+01  4.7032182807063521e+01  4.7209357296776503e+01  4.7358006097079922e+01  4.7483868530663287e+01  4.7591263028291849e+01  4.7683501271728474e+01  4.7763165501353896e+01  4.7832298932757823e+01  4.7892539443365742e+01  4.7945215300014581e+01  4.7991414925782642e+01  4.8032038560363524e+01  4.8067837066806625e+01  4.8099441466210635e+01  4.8127385685668102e+01  4.8152124271829265e+01  4.8174046323874840e+01  4.8193486555086110e+01  4.8210734150511421e+01  4.8226039916404211e+01  4.8239622093416280e+01  4.8251671115438626e+01  4.8262353529650980e+01  4.8271815244000123e+01  4.8280184231277659e+01  4.8287572790888191e+01  4.8294079447943957e+01  4.8299790552788181e+01  4.8304781631209345e+01  4.8309118525561864e+01  4.8312858359085944e+01  4.8316050349422184e+01  4.8318736492273430e+01  4.8320952132090049e+01  4.8322726433327531e+01  4.8324082763077463e+01  4.8325038993577621e+01  4.8325607731147080e+01  4.8325796476397493e+01  4.8325607719058539e+01  4.8325038969372017e+01  4.8324082726698187e+01  4.8322726384690576e+01  4.8320952071084925e+01  4.8318736418764530e+01  4.8316050263250595e+01  4.8312858260071494e+01  4.8309118413505061e+01  4.8304781505894340e+01  4.8299790413985406e+01  4.8294079295413304e+01  4.8287572624382115e+01  4.8280184050544882e+01  4.8271815048789051e+01  4.8262353319713775e+01  4.8251670890534868e+01  4.8239621853316741e+01  4.8226039660895154e+01  4.8210733879398482e+01  4.8193486268197908e+01  4.8174046021066900e+01  4.8152123952987765e+01  4.8127385350713169e+01  4.8099441115099665e+01  4.8067836699537068e+01  4.8032038176975576e+01  4.7991414526361559e+01  4.7945214884692362e+01  4.7892539012322352e+01  4.7832298486222356e+01  4.7763165039604559e+01  4.7683500795092129e+01  4.7591262537143265e+01  4.7483868025422964e+01  4.7358005578211483e+01  4.7209356764783159e+01  4.7032182262482969e+01  4.6818685295323839e+01  4.6558000131474280e+01  4.6234521179836754e+01  4.5825013134143667e+01  4.5293329613438502e+01  4.4580088450982977e+01  4.3580718579813265e+01  4.2093512033139284e+01  3.9678463477008890e+01  3.5199002423725140e+01  2.4972670415267078e+01  0.0000000000000000e+00  0.0000000000000000e+00  1.4691775428290443e+01  2.4890872907873373e+01  3.1121388289275799e+01  3.5024493830076409e+01  3.7616419765857991e+01  3.9432626507758535e+01  4.0762034079632393e+01  4.1769354776829132e+01  4.2553879299653573e+01  4.3178505229261106e+01  4.3684808440305424e+01  4.4101285303852137e+01  4.4448081388553909e+01  4.4739822522092403e+01  4.4987374481321140e+01  4.5198973363115414e+01  4.5380973058606067e+01  4.5538352368796360e+01  4.5675066982793844e+01  4.5794298804239872e+01  4.5898635822940854e+01  4.5990204038873486e+01  4.6070765678196402e+01  4.6141793316883259e+01  4.6204526522823244e+01  4.6260015636688635e+01  4.6309155969686373e+01  4.6352714776472993e+01  4.6391352721591176e+01  4.6425641106376752e+01  4.6456075800726090e+01  4.6483088590846215e+01  4.6507056483522092e+01  4.6528309381367379e+01  4.6547136449445894e+01  4.6563791422787091e+01  4.6578497050474667e+01  4.6591448830735317e+01  4.6602818159596751e+01  4.6612754990890828e+01  4.6621390085940746e+01  4.6628836915913347e+01  4.6635193267595149e+01  4.6640542593543856e+01  4.6644955139628500e+01  4.6648488876483398e+01  4.6651190256039342e+01  4.6653094809802127e+01  4.6654227601719462e+01  4.6654603545153137e+01  4.6654227590507475e+01  4.6653094787351428e+01  4.6651190222296840e+01  4.6648488831370322e+01  4.6644955083041374e+01  4.6640542525355578e+01  4.6635193187656817e+01  4.6628836824056130e+01  4.6621389981977764e+01  4.6612754874619718e+01  4.6602818030802332e+01  4.6591448689192497e+01  4.6578496895951240e+01  4.6563791255047207e+01  4.6547136268253290e+01  4.6528309186488968e+01  4.6507056274731319e+01  4.6483088367926591e+01  4.6456075563474876e+01  4.6425640854608538e+01  4.6391352455141011e+01  4.6352714495199827e+01  4.6309155673476120e+01  4.6260015325457083e+01  4.6204526196518536e+01  4.6141792975488158e+01  4.6070765321730093e+01  4.5990203667393160e+01  4.5898635436542442e+01  4.5794298403058328e+01  4.5675066567003121e+01  4.5538351938608230e+01  4.5380972614268401e+01  4.5198972904909517e+01  4.4987374009558152e+01  4.4739822037108375e+01  4.4448080890703622e+01  4.4101284793501172e+01  4.3684807917819846e+01  4.3178504694994373e+01  4.2553878753928579e+01  4.1769354219913367e+01  4.0762033511701553e+01  3.9432625928836970e+01  3.7616419175715180e+01  3.5024493228031830e+01  3.1121387673840296e+01  2.4890872276441698e+01  1.4691774781107901e+01  0.0000000000000000e+00  0.0000000000000000e+00  1.0157939854514265e+01  1.8551702797074643e+01  2.4755172158656745e+01  2.9190931359719553e+01  3.2391031734756069e+01  3.4754010910444741e+01  3.6543972548574949e+01  3.7932263911023711e+01  3.9031419107122716e+01  3.9917081098877361e+01  4.0641424605773892e+01  4.1241354706927730e+01  4.1743593131953759e+01  4.2167903780433555e+01  4.2529187049360416e+01  4.2838871606563856e+01  4.3105859840987044e+01  4.3337183388310727e+01  4.3538466291837530e+01  4.3714257969449640e+01  4.3868276422764282e+01  4.4003588499238603e+01  4.4122745306592819e+01  4.4227885204598465e+01  4.4320813037907968e+01  4.4403061739053300e+01  4.4475940696459766e+01  4.4540574078493314e+01  4.4597931457658113e+01  4.4648852475736241e+01  4.4694066855780129e+01  4.4734210749921132e+01  4.4769840178565076e+01  4.4801442142987952e+01  4.4829443863094873e+01  4.4854220493499071e+01  4.4876101595807320e+01  4.4895376587087952e+01  4.4912299339600516e+01  4.4927092071807031e+01  4.4939948643101410e+01  4.4951037342842518e+01  4.4960503246831493e+01  4.4968470200340519e+01  4.4975042475414824e+01  4.4980306140841662e+01  4.4984330175454247e+01  4.4987167348949704e+01  4.4988854888864822e+01  4.4989414947532396e+01  4.4988854878541133e+01  4.4987167328276954e+01  4.4984330144381950e+01  4.4980306099294808e+01  4.4975042423294880e+01  4.4968470137526651e+01  4.4960503173181884e+01  4.4951037258196337e+01  4.4939948547280693e+01  4.4927091964619009e+01  4.4912299220840062e+01  4.4895376456540163e+01  4.4876101453250577e+01  4.4854220338707776e+01  4.4829443695842841e+01  4.4801441963051381e+01  4.4769839985725895e+01  4.4734210543970178e+01  4.4694066636520382e+01  4.4648852242985917e+01  4.4597931211253666e+01  4.4540573818292465e+01  4.4475940422343804e+01  4.4403061450929613e+01  4.4320812735712011e+01  4.4227884888295435e+01  4.4122744976178751e+01  4.4003588154741074e+01  4.3868276064242593e+01  4.3714257596994081e+01  4.3538465905568344e+01  4.3337182988375922e+01  4.3105859427559267e+01  4.2838871179836431e+01  4.2529186609542251e+01  4.2167903327741989e+01  4.1743592666606496e+01  4.1241354229132376e+01  4.0641424115714635e+01  3.9917080596698128e+01  3.9031418592905496e+01  3.7932263384759480e+01  3.6543972010124129e+01  3.4754010359481647e+01  3.2391031170691463e+01  2.9190930781608486e+01  2.4755171565166865e+01  1.8551702186852935e+01  1.0157939227283213e+01  0.0000000000000000e+00  0.0000000000000000e+00  7.6887992527849436e+00  1.4540506986395741e+01  2.0157511643551612e+01  2.4566505085276798e+01  2.7981245043133729e+01  3.0634994722937776e+01  3.2720081377354241e+01  3.4380610906781875e+01  3.5721164029150316e+01  3.6817258010366579e+01  3.7723807630300811e+01  3.8481238936216087e+01  3.9119739607284515e+01  3.9662185013250294e+01  4.0126158901280959e+01  4.0525361780109456e+01  4.0870604410864232e+01  4.1170517888648959e+01  4.1432067980032983e+01  4.1660932584320356e+01  4.1861782253512047e+01  4.2038491178929590e+01  4.2194297685500736e+01  4.2331927624671536e+01  4.2453690196941409e+01  4.2561553066721984e+01  4.2657201766070223e+01  4.2742087063797264e+01  4.2817463032413883e+01  4.2884417863096054e+01  4.2943898980781725e+01  4.2996733644404330e+01  4.3043645944208656e+01  4.3085270903214543e+01  4.3122166234885327e+01  4.3154822190850361e+01  4.3183669841700215e+01  4.3209088063566767e+01  4.3231409448396683e+01  4.3250925312807645e+01  4.3267889946423807e+01  4.3282524213530472e+01  4.3295018600211336e+01  4.3305535781621444e+01  4.3314212769796789e+01  4.3321162690687196e+01  4.3326476229361695e+01  4.3330222774140800e+01  4.3332451283394420e+01  4.3333190892622788e+01  4.3332451273965859e+01  4.3330222755259101e+01  4.3326476200977929e+01  4.3321162652728752e+01  4.3314212722168143e+01  4.3305535724205463e+01  4.3295018532870621e+01  4.3282524136108890e+01  4.3267889858748646e+01  4.3250925214691819e+01  4.3231409339640585e+01  4.3209087943961386e+01  4.3183669711029353e+01  4.3154822048893976e+01  4.3122166081421931e+01  4.3085270738024526e+01  4.3043645767077031e+01  4.2996733455123945e+01  4.2943898779156079e+01  4.2884417648942161e+01  4.2817462805564951e+01  4.2742086824105186e+01  4.2657201513407713e+01  4.2561552800984593e+01  4.2453689918048902e+01  4.2331927332569379e+01  4.2194297380160258e+01  4.2038490860348325e+01  4.1861781921712954e+01  4.1660932239350622e+01  4.1432067621961934e+01  4.1170517517564896e+01  4.0870604026870417e+01  4.0525361383318746e+01  4.0126158491809392e+01  3.9662184591208664e+01  3.9119739172768419e+01  3.8481238489293368e+01  3.7723807170996643e+01  3.6817257538644377e+01  3.5721163544888334e+01  3.4380610409743767e+01  3.2720080867152021e+01  3.0634994198987183e+01  2.7981244504604756e+01  2.4566504531058126e+01  2.0157511072277014e+01  1.4540506396585526e+01  7.6887986429199735e+00  0.0000000000000000e+00  0.0000000000000000e+00  6.1478749896299041e+00  1.1841238786981105e+01  1.6796630330645229e+01  2.0937823091368468e+01  2.4326166418777543e+01  2.7078493583300951e+01  2.9316737070669227e+01  3.1147099099231422e+01  3.2655294071692111e+01  3.3908253778356503e+01  3.4957616040486201e+01  3.5843170105223962e+01  3.6595712577361837e+01  3.7239257065160636e+01  3.7792693946208708e+01  3.8271023028920830e+01  3.8686267247225842e+01  3.9048152077979680e+01  3.9364613783582151e+01  3.9642182466962872e+01  3.9886273165536565e+01  4.0101408959537686e+01  4.0291393443732389e+01  4.0459445182218168e+01  4.0608303386602913e+01  4.0740311633206396e+01  4.0857484685315278e+01  4.0961562215511542e+01  4.1054052293062824e+01  4.1136266815709902e+01  4.1209350555865164e+01  4.1274305110037993e+01  4.1332008752887035e+01  4.1383232979015084e+01  4.1428656348676050e+01  4.1468876125000335e+01  4.1504418090684062e+01  4.1535744854324165e+01  4.1563262895521468e+01  4.1587328549624139e+01  4.1608253094619130e+01  4.1626307071974914e+01  4.1641723948504122e+01  4.1654703206240647e+01  4.1665412930909859e+01  4.1673991956016849e+01  4.1680551608273042e+01  4.1685177090521961e+01  4.1687928530121447e+01  4.1688841713552755e+01  4.1687928521590287e+01  4.1685177073435334e+01  4.1680551582582659e+01  4.1673991921650966e+01  4.1665412887774110e+01  4.1654703154219305e+01  4.1641723887461211e+01  4.1626307001756075e+01  4.1608253015053329e+01  4.1587328460525747e+01  4.1563262796692484e+01  4.1535744745556713e+01  4.1504417971763004e+01  4.1468875995705922e+01  4.1428656208786670e+01  4.1383232828310099e+01  4.1332008591149553e+01  4.1274304937057885e+01  4.1209350371441516e+01  4.1136266619653853e+01  4.1054052085199807e+01  4.0961561995683702e+01  4.0857484453383137e+01  4.0740311389050611e+01  4.0608303130125371e+01  4.0459444913342793e+01  4.0291393162405065e+01  4.0101408665726098e+01  3.9886272859228747e+01  3.9642182148165432e+01  3.9364613452317379e+01  3.9048151734281753e+01  3.8686266891135837e+01  3.8271022660480540e+01  3.7792693565452979e+01  3.7239256672108006e+01  3.6595712172003232e+01  3.5843169687509096e+01  3.4957615610307286e+01  3.3908253335528471e+01  3.2655293615929118e+01  3.1147098630118691e+01  2.9316736587630242e+01  2.7078493085561341e+01  2.4326165905329670e+01  2.0937822560946703e+01  1.6796629781721624e+01  1.1841238217761809e+01  6.1478743979491304e+00  0.0000000000000000e+00  0.0000000000000000e+00  5.0952516361556430e+00  9.9186174398536391e+00  1.4274259680401919e+01  1.8071980226076981e+01  2.1309408991729324e+01  2.4035793723526453e+01  2.6320909119606590e+01  2.8236233743758973e+01  2.9846199487344254e+01  3.1205401970417618e+01  3.2358685121285355e+01  3.3342343601098939e+01  3.4185591795219622e+01  3.4911942638975731e+01  3.5540378174673414e+01  3.6086297404922774e+01  3.6562266003133679e+01  3.6978602772342683e+01  3.7343836546687065e+01  3.7665062197302774e+01  3.7948218756707327e+01  3.8198307609911751e+01  3.8419564543332307e+01  3.8615596175597766e+01  3.8789488784132544e+01  3.8943895634762114e+01  3.9081107480876014e+01  3.9203109811436278e+01  3.9311629605643567e+01  3.9408173729685807e+01  3.9494060637642853e+01  3.9570446677012143e+01  3.9638348021716240e+01  3.9698659041246806e+01  3.9752167748433394e+01  3.9799568838737066e+01  3.9841474732359096e+01  3.9878424950356461e+01  3.9910894092469121e+01  3.9939298633767649e+01  3.9964002716687283e+01  3.9985323082327476e+01  4.0003533258396232e+01  4.0018867099530844e+01  4.0031521757925709e+01  4.0041660147422036e+01  4.0049412951822767e+01  4.0054880217674118e+01  4.0058132562680399e+01  4.0059212022943086e+01  4.0058132555044921e+01  4.0054880202378691e+01  4.0049412928818761e+01  4.0041660116637239e+01  4.0031521719265086e+01  4.0018867052877710e+01  4.0003533203613415e+01  3.9985323019259134e+01  3.9964002645160647e+01  3.9939298553594988e+01  3.9910894003449620e+01  3.9878424852279331e+01  3.9841474625005482e+01  3.9799568721883034e+01  3.9752167621852216e+01  3.9698658904712062e+01  3.9638347875004364e+01  3.9570446519905182e+01  3.9494060469930851e+01  3.9408173551169682e+01  3.9311629416137045e+01  3.9203109610767960e+01  3.9081107268891230e+01  3.8943895411324050e+01  3.8789488549123341e+01  3.8615595928918736e+01  3.8419564284903835e+01  3.8198307339672482e+01  3.7948218474612510e+01  3.7665061903321892e+01  3.7343836240800357e+01  3.6978602454536777e+01  3.6562265673396162e+01  3.6086297063234987e+01  3.5540377821002245e+01  3.4911942273263456e+01  3.4185591417371910e+01  3.3342343210970583e+01  3.2358684718663447e+01  3.1205401555001988e+01  2.9846199058724491e+01  2.8236233301388221e+01  2.6320908662772368e+01  2.4035793251319472e+01  2.1309408503012843e+01  1.8071979719458906e+01  1.4274259154206996e+01  9.9186168920779227e+00  5.0952510643673170e+00  0.0000000000000000e+00  0.0000000000000000e+00  4.3293087263947658e+00  8.4838977694726925e+00  1.2326557922558523e+01  1.5776997716249944e+01  1.8809474740531449e+01  2.1437640146528750e+01  2.3697347753713863e+01  2.5633349028767650e+01  2.7291068216686487e+01  2.8712401313553883e+01  2.9934065015408130e+01  3.0987337087268362e+01  3.1898454009971758e+01  3.2689256098006048e+01  3.3377873435804567e+01  3.3979360079068364e+01  3.4506243211774517e+01  3.4968982426497561e+01  3.5376346571227963e+01  3.5735719810324170e+01  3.6053348990165667e+01  3.6334543271867489e+01  3.6583835358241238e+01  3.6805111984955602e+01  3.7001719863026544e+01  3.7176552010032154e+01  3.7332118387869095e+01  3.7470603948369025e+01  3.7593916541120869e+01  3.7703726628106736e+01  3.7801500349159568e+01  3.7888527167547338e+01  3.7965943077514105e+01  3.8034750160597859e+01  3.8095833123462619e+01  3.8149973327836094e+01  3.8197860725972809e+01  3.8240104037450401e+01  3.8277239440867397e+01  3.8309738003875516e+01  3.8338012034409502e+01  3.8362420502982211e+01  3.8383273658933504e+01  3.8400836941320932e+01  3.8415334266751103e+01  3.8426950761084065e+01  3.8435834988979913e+01  3.8442100724182197e+01  3.8445828293834516e+01  3.8447065521648213e+01  3.8445828287089626e+01  3.8442100710667376e+01  3.8435834968645310e+01  3.8426950733855634e+01  3.8415334232531272e+01  3.8400836899989955e+01  3.8383273610350429e+01  3.8362420446986810e+01  3.8338011970823864e+01  3.8309737932506110e+01  3.8277239361507121e+01  3.8240103949881096e+01  3.8197860629967757e+01  3.8149973223162490e+01  3.8095833009884295e+01  3.8034750037878005e+01  3.7965942945417829e+01  3.7888527025844468e+01  3.7801500197626993e+01  3.7703726466531037e+01  3.7593916369300388e+01  3.7470603766115779e+01  3.7332118195010295e+01  3.7176551806411567e+01  3.7001719648505073e+01  3.6805111759411524e+01  3.6583835121569848e+01  3.6334543023979990e+01  3.6053348730987288e+01  3.5735719539791297e+01  3.5376346289284669e+01  3.4968982133090478e+01  3.4506242906846985e+01  3.3979359762553131e+01  3.3377873107614754e+01  3.2689255758024835e+01  3.1898453658039926e+01  3.0987336723169790e+01  2.9934064638853307e+01  2.8712400924160544e+01  2.7291067813958016e+01  2.5633348612068591e+01  2.3697347322243626e+01  2.1437639699293353e+01  1.8809474276314685e+01  1.5776997233583412e+01  1.2326557419687088e+01  8.4838972443075882e+00  4.3293081764445924e+00  0.0000000000000000e+00  0.0000000000000000e+00  3.7455598557831351e+00  7.3725366571905360e+00  1.0782431191734984e+01  1.3909106837635774e+01  1.6720581819368942e+01  1.9213057134165616e+01  2.1401885965588871e+01  2.3313089174799337e+01  2.4977020338559818e+01  2.6424331787170196e+01  2.7683752930331114e+01  2.8781081405726184e+01  2.9738897908493986e+01  3.0576669516873014e+01  3.1311034748683333e+01  3.1956152564847951e+01  3.2524053281200374e+01  3.3024961984144447e+01  3.3467583104002358e+01  3.3859344207555381e+01  3.4206601572263068e